Page,Solute,Solute_type,Solvent,Solvent_formula,MN_symbol,MN,MW_symbol,MW,MV_symbol,MV,per composition,per substitution,Tg_symbol,Tg (K),Note,T (K),Vg (cm3/g),chi_inf,omega_inf,U/C,Ref,calc_omega_inf
206,Polysulfone,Homopolymer,Cyclohexanone,C6H10O,a,400000,,,,,,,,,,523.2,,,6.57,C,5,
206,Polysulfone,Homopolymer,Cyclohexanone,C6H10O,a,400000,,,,,,,,,,573.2,,,5.03,C,5,
206,Polysulfone,Homopolymer,Cyclohexane,C6H12,,,,,,,,,,,,423.2,0.6018,,,,33,92
206,Polysulfone,Homopolymer,Hexane,C6H14,,,,,,,,,,,,423.2,0.6447,,,,33,67.1
206,Polysulfone,Homopolymer,Hexane,C6H14,,,,,,,,,,,,443.2,0.521,,,,33,60.1
206,Polysulfone,Homopolymer,"Diethyleneglycol, dimethyl ether",C6H14O3,a,400000,,,,,,,,,,523.2,,,7.65,C,5,
206,Polysulfone,Homopolymer,"Diethyleneglycol, dimethyl ether",C6H14O3,a,400000,,,,,,,,,,573.2,,,5.95,C,5,
206,Polysulfone,Homopolymer,Toluene,C7H8,a,400000,,,,,,,,,,523.2,,,7.61,C,5,
206,Polysulfone,Homopolymer,Toluene,C7H8,a,400000,,,,,,,,,,573.2,,,6.65,C,5,
207,Polysulfone,Homopolymer,Toluene,C7H8,,,,,,,,,,,,423.2,7.5252,,,,33,12.9
207,Polysulfone,Homopolymer,Toluene,C7H8,,,,,,,,,,,,443.2,4.2552,,,,33,15.2
207,Polysulfone,Homopolymer,"Cyclohexane, methyl",C7H14,,,,,,,,,,,,423.2,0.6396,,,,33,118
207,Polysulfone,Homopolymer,Heptane,C7H16,a,400000,,,,,,,,,,523.2,,,23,C,5,
207,Polysulfone,Homopolymer,Heptane,C7H16,a,400000,,,,,,,,,,573.2,,,21.6,C,5,
207,Polysulfone,Homopolymer,Heptane,C7H16,,,,,,,,,,,,423.2,0.8865,,,,33,78.6
207,Polysulfone,Homopolymer,Heptane,C7H16,,,,,,,,,,,,443.2,0.7462,,,,33,64.2
207,Polysulfone,Homopolymer,"Benzene, dimethyl (isomer not specified)",C8H10,a,400000,,,,,,,,,,523.2,,,7.99,C,5,
207,Polysulfone,Homopolymer,"Benzene, dimethyl (isomer not specified)",C8H10,a,400000,,,,,,,,,,573.2,,,7.25,C,5,
207,Polysulfone,Homopolymer,Octane,C8H18,a,400000,,,,,,,,,,523.2,,,23.5,C,5,
207,Polysulfone,Homopolymer,Octane,C8H18,a,400000,,,,,,,,,,573.2,,,21.8,C,5,
207,Polysulfone,Homopolymer,Octane,C8H18,,,,,,,,,,,,423.2,1.1588,,,,33,97.7
207,Polysulfone,Homopolymer,Octane,C8H18,,,,,,,,,,,,443.2,0.9267,,,,33,79.5
207,Polysulfone,Homopolymer,Decane,C10H22,a,400000,,,,,,,,,,523.2,,,21.2,C,5,
207,Polysulfone,Homopolymer,Decane,C10H22,a,400000,,,,,,,,,,573.2,,,18.6,C,5,
208,"Poly(tetramethylenecarbonate), alpha,omega-dihydroxy",Homopolymer,"1,2,3-Propanetriyl trinitrate",C3H5N3O9,,2210,,,,,,,,,,402.1,16151,,,,82,
208,"Poly(tetramethylenecarbonate), alpha,omega-dihydroxy",Homopolymer,"1,2,3-Propanetriyl trinitrate",C3H5N3O9,,2210,,,,,,,,,,411.8,9434,,,,82,
208,"Poly(tetramethylenecarbonate), alpha,omega-dihydroxy",Homopolymer,"1,2,3-Propanetriyl trinitrate",C3H5N3O9,,2210,,,,,,,,,,421.6,5790,,,,82,
208,"Poly(tetramethylenecarbonate), alpha,omega-dihydroxy",Homopolymer,"1,2,3-Propanetriyl trinitrate",C3H5N3O9,,2210,,,,,,,,,,431.1,3680,,,,82,
208,"Poly(tetramethylenecarbonate), alpha,omega-dihydroxy",Homopolymer,"1,2,4-Butanetriyl trinitrate",C4H7N3O9,,2210,,,,,,,,,,402.1,39120,,,,82,
208,"Poly(tetramethylenecarbonate), alpha,omega-dihydroxy",Homopolymer,"1,2,4-Butanetriyl trinitrate",C4H7N3O9,,2210,,,,,,,,,,411.8,22547,,,,82,
208,"Poly(tetramethylenecarbonate), alpha,omega-dihydroxy",Homopolymer,"1,2,4-Butanetriyl trinitrate",C4H7N3O9,,2210,,,,,,,,,,421.6,13121,,,,82,
208,"Poly(tetramethylenecarbonate), alpha,omega-dihydroxy",Homopolymer,"1,2,4-Butanetriyl trinitrate",C4H7N3O9,,2210,,,,,,,,,,431.1,8185,,,,82,
208,"Poly(tetramethylenecarbonate), alpha,omega-dihydroxy",Homopolymer,Glycerol triacetate,C9H14O6,,2210,,,,,,,,,,402.1,3592,,,,81,3.35
208,"Poly(tetramethylenecarbonate), alpha,omega-dihydroxy",Homopolymer,Glycerol triacetate,C9H14O6,,2210,,,,,,,,,,411.8,2236,,,,81,3.3
208,"Poly(tetramethylenecarbonate), alpha,omega-dihydroxy",Homopolymer,Glycerol triacetate,C9H14O6,,2210,,,,,,,,,,421.6,1435,,,,81,3.22
208,"Poly(tetramethylenecarbonate), alpha,omega-dihydroxy",Homopolymer,Glycerol triacetate,C9H14O6,,2210,,,,,,,,,,431.1,965,,,,81,3.13
209,"Poly(tri(oxyethylene)oxysuccinyl), alpha,omega-dihydroxy",Homopolymer,Glycerol triacetate,C9H14O6,,1250,,,,,,,,,,402.1,4822,,,,81,2.5
209,"Poly(tri(oxyethylene)oxysuccinyl), alpha,omega-dihydroxy",Homopolymer,Glycerol triacetate,C9H14O6,,1250,,,,,,,,,,411.8,2989,,,,81,2.47
209,"Poly(tri(oxyethylene)oxysuccinyl), alpha,omega-dihydroxy",Homopolymer,Glycerol triacetate,C9H14O6,,1250,,,,,,,,,,421.6,1863,,,,81,2.48
209,"Poly(tri(oxyethylene)oxysuccinyl), alpha,omega-dihydroxy",Homopolymer,Glycerol triacetate,C9H14O6,,1250,,,,,,,,,,431.1,1205,,,,81,2.51
210,Polyurethane,Homopolymer,"Formic acid, amide, N,N-dimethyl",C3H7NO,,,,,,,,,<,298.15,,373.2,386.9,,,,2,3.89
210,Polyurethane,Homopolymer,"Formic acid, amide, N,N-dimethyl",C3H7NO,,,,,,,,,<,298.15,,398.2,165,,,,2,4.07
210,Polyurethane,Homopolymer,"Formic acid, amide, N,N-dimethyl",C3H7NO,,,,,,,,,<,298.15,,423.2,79.3,,,,2,4.33
210,Polyurethane,Homopolymer,"Formic acid, amide, N,N-dimethyl",C3H7NO,,,,,,,,,<,298.15,,448.2,42.2,,,,2,4.62
210,Polyurethane,Homopolymer,"Formic acid, amide, N,N-dimethyl",C3H7NO,,,,,,,,,<,298.15,,473.2,24,,,,2,5.01
210,Polyurethane,Homopolymer,"Ethanol, 2-methoxy",C3H8O2,,,,,,,,,<,298.15,,373.2,80.2,,,,2,8.46
210,Polyurethane,Homopolymer,"Ethanol, 2-methoxy",C3H8O2,,,,,,,,,<,298.15,,398.2,37,,,,2,8.08
210,Polyurethane,Homopolymer,"Ethanol, 2-methoxy",C3H8O2,,,,,,,,,<,298.15,,423.2,19,,,,2,7.75
210,Polyurethane,Homopolymer,"Ethanol, 2-methoxy",C3H8O2,,,,,,,,,<,298.15,,448.2,11.4,,,,2,6.94
210,Polyurethane,Homopolymer,"Ethanol, 2-methoxy",C3H8O2,,,,,,,,,<,298.15,,473.2,7.4,,,,2,6.15
210,Polyurethane,Homopolymer,"Furane, tetrahydro",C4H8O,,,,,,,,,<,298.15,,373.2,20.6,,,,2,5.99
210,Polyurethane,Homopolymer,"Furane, tetrahydro",C4H8O,,,,,,,,,<,298.15,,398.2,11.3,,,,2,6.17
210,Polyurethane,Homopolymer,"Furane, tetrahydro",C4H8O,,,,,,,,,<,298.15,,423.2,7.1,,,,2,6.06
210,Polyurethane,Homopolymer,"Furane, tetrahydro",C4H8O,,,,,,,,,<,298.15,,448.2,4.6,,,,2,6.2
210,Polyurethane,Homopolymer,"Furane, tetrahydro",C4H8O,,,,,,,,,<,298.15,,473.2,3.3,,,,2,6.07
210,Polyurethane,Homopolymer,"1,4-Dioxane",C4H8O2,,,,,,,,,<,298.15,,373.2,62.2,,,,2,4.5
210,Polyurethane,Homopolymer,"1,4-Dioxane",C4H8O2,,,,,,,,,<,298.15,,398.2,29.8,,,,2,4.75
210,Polyurethane,Homopolymer,"1,4-Dioxane",C4H8O2,,,,,,,,,<,298.15,,423.2,15.6,,,,2,5.07
210,Polyurethane,Homopolymer,"1,4-Dioxane",C4H8O2,,,,,,,,,<,298.15,,448.2,9,,,,2,5.34
210,Polyurethane,Homopolymer,"1,4-Dioxane",C4H8O2,,,,,,,,,<,298.15,,473.2,5.8,,,,2,5.4
210,Polyurethane,Homopolymer,1-Butanol,C4H10O,,,,,,,,,<,298.15,,373.2,51.5,,,,2,11.9
211,Polyurethane,Homopolymer,1-Butanol,C4H10O,,,,,,,,,<,298.15,,398.2,22.7,,,,2,10.9
211,Polyurethane,Homopolymer,1-Butanol,C4H10O,,,,,,,,,<,298.15,,423.2,12.1,,,,2,9.62
211,Polyurethane,Homopolymer,1-Butanol,C4H10O,,,,,,,,,<,298.15,,448.2,7.1,,,,2,8.7
211,Polyurethane,Homopolymer,1-Butanol,C4H10O,,,,,,,,,<,298.15,,473.2,4.7,,,,2,7.73
211,Polyurethane,Homopolymer,Benzene,C6H6,,,,,,,,,<,298.15,,373.2,23.1,,,,2,7.38
211,Polyurethane,Homopolymer,Benzene,C6H6,,,,,,,,,<,298.15,,398.2,12.5,,,,2,7.49
211,Polyurethane,Homopolymer,Benzene,C6H6,,,,,,,,,<,298.15,,423.2,7.8,,,,2,7.22
211,Polyurethane,Homopolymer,Benzene,C6H6,,,,,,,,,<,298.15,,448.2,5,,,,2,7.3
211,Polyurethane,Homopolymer,Benzene,C6H6,,,,,,,,,<,298.15,,473.2,3.3,,,,2,7.61
211,Polyurethane,Homopolymer,Cyclohexanone,C6H10O,,,,,,,,,<,298.15,,373.2,255.2,,,,2,4.87
211,Polyurethane,Homopolymer,Cyclohexanone,C6H10O,,,,,,,,,<,298.15,,398.2,113.5,,,,2,4.86
211,Polyurethane,Homopolymer,Cyclohexanone,C6H10O,,,,,,,,,<,298.15,,423.2,57.3,,,,2,4.81
211,Polyurethane,Homopolymer,Cyclohexanone,C6H10O,,,,,,,,,<,298.15,,448.2,30.9,,,,2,4.91
211,Polyurethane,Homopolymer,Cyclohexanone,C6H10O,,,,,,,,,<,298.15,,473.2,18.9,,,,2,4.79
211,Polyurethane,Homopolymer,"2-Pentanone, 4-methyl",C6H12O,,,,,,,,,<,298.15,,373.2,41.4,,,,2,9.16
211,Polyurethane,Homopolymer,"2-Pentanone, 4-methyl",C6H12O,,,,,,,,,<,298.15,,398.2,20,,,,2,9.42
211,Polyurethane,Homopolymer,"2-Pentanone, 4-methyl",C6H12O,,,,,,,,,<,298.15,,423.2,10.5,,,,2,9.92
211,Polyurethane,Homopolymer,"2-Pentanone, 4-methyl",C6H12O,,,,,,,,,<,298.15,,448.2,6.8,,,,2,9.22
211,Polyurethane,Homopolymer,"2-Pentanone, 4-methyl",C6H12O,,,,,,,,,<,298.15,,473.2,4.4,,,,2,9.17
211,Polyurethane,Homopolymer,"Acetic acid, butyl ester",C6H12O2,,,,,,,,,<,298.15,,373.2,54.2,,,,2,8.33
211,Polyurethane,Homopolymer,"Acetic acid, butyl ester",C6H12O2,,,,,,,,,<,298.15,,398.2,24.5,,,,2,8.57
212,Polyurethane,Homopolymer,"Acetic acid, butyl ester",C6H12O2,,,,,,,,,<,298.15,,423.2,12.8,,,,2,8.61
212,Polyurethane,Homopolymer,"Acetic acid, butyl ester",C6H12O2,,,,,,,,,<,298.15,,448.2,7.2,,,,2,8.87
212,Polyurethane,Homopolymer,"Acetic acid, butyl ester",C6H12O2,,,,,,,,,<,298.15,,473.2,4.6,,,,2,8.73
212,Polyurethane,Homopolymer,Toluene,C7H8,,,,,,,,,<,298.15,,373.2,42.8,,,,2,8.03
212,Polyurethane,Homopolymer,Toluene,C7H8,,,,,,,,,<,298.15,,398.2,22.4,,,,2,7.75
212,Polyurethane,Homopolymer,Toluene,C7H8,,,,,,,,,<,298.15,,423.2,12.8,,,,2,7.59
212,Polyurethane,Homopolymer,Toluene,C7H8,,,,,,,,,<,298.15,,448.2,8,,,,2,7.39
212,Polyurethane,Homopolymer,Toluene,C7H8,,,,,,,,,<,298.15,,473.2,5.4,,,,2,7.13
213,Poly(delta-valerolactone),Homopolymer,"Methane, tetrachloro",CCl4,,17000,,46000,,,,,,,55,393.2,13,,,,37,3.92
213,Poly(delta-valerolactone),Homopolymer,"Methane, trichloro",CHCl3,,17000,,46000,,,,,,,55,393.2,21.7,,,,37,1.96
213,Poly(delta-valerolactone),Homopolymer,"Methane, dichloro",CH2Cl2,,17000,,46000,,,,,,,55,393.2,11.2,,,,37,2.99
213,Poly(delta-valerolactone),Homopolymer,2-Propanone,C3H6O,,17000,,46000,,,,,,,55,393.2,8.8,,,,37,8.47
213,Poly(delta-valerolactone),Homopolymer,2-Butanone,C4H8O,,17000,,46000,,,,,,,55,393.2,16.6,,,,37,6.61
213,Poly(delta-valerolactone),Homopolymer,"Acetic acid, ethyl ester",C4H8O2,,17000,,46000,,,,,,,55,393.2,12.3,,,,37,6.74
213,Poly(delta-valerolactone),Homopolymer,Pentane,C5H12,,17000,,46000,,,,,,,55,393.2,1.7,,,,37,25.1
213,Poly(delta-valerolactone),Homopolymer,Benzene,C6H6,,17000,,46000,,,,,,,55,393.2,19.7,,,,37,5.32
213,Poly(delta-valerolactone),Homopolymer,Hexane,C6H14,,17000,,46000,,,,,,,55,393.2,2.9,,,,37,26.4
213,Poly(delta-valerolactone),Homopolymer,Heptane,C7H16,,17000,,46000,,,,,,,55,393.2,5.5,,,,37,24.5
214,Poly(vinyl acetate),Homopolymer,"Methane, tetrachloro",CCl4,,6700,,40000,,,,,,,,363.2,20.98,,,,20,5
214,Poly(vinyl acetate),Homopolymer,"Methane, tetrachloro",CCl4,,6700,,40000,,,,,,,,373.2,18.46,,,,20,4.39
214,Poly(vinyl acetate),Homopolymer,"Methane, tetrachloro",CCl4,,6700,,40000,,,,,,,,393.2,11.86,,,,20,4.3
214,Poly(vinyl acetate),Homopolymer,"Methane, tetrachloro",CCl4,,47800,,435000,,,,,,,,392.7,18.5,,,,66,2.78
214,Poly(vinyl acetate),Homopolymer,"Methane, tetrachloro",CCl4,,47800,,435000,,,,,,,,413.2,11.1,,,,66,3.06
214,Poly(vinyl acetate),Homopolymer,"Methane, tetrachloro",CCl4,,47800,,435000,,,,,,,,433,6.82,,,,66,3.51
214,Poly(vinyl acetate),Homopolymer,"Methane, tetrachloro",CCl4,,86000,,,,,,,,,,408.2,,,4.23,C,53,
214,Poly(vinyl acetate),Homopolymer,"Methane, tetrachloro",CCl4,,,,500000,,,,,,,,363,39.2,,,,66,2.69
214,Poly(vinyl acetate),Homopolymer,"Methane, tetrachloro",CCl4,,,,500000,,,,,,,,387.5,22.4,,,,66,2.58
214,Poly(vinyl acetate),Homopolymer,"Methane, tetrachloro",CCl4,,,,500000,,,,,,,,401.8,16.8,,,,66,2.53
214,Poly(vinyl acetate),Homopolymer,"Methane, tetrachloro",CCl4,,,,500000,,,,,,,,417.1,10.4,,,,66,3.04
214,Poly(vinyl acetate),Homopolymer,"Methane, tetrachloro",CCl4,,,,1500000,,,,,,,,373.8,27.1,,,,66,2.94
214,Poly(vinyl acetate),Homopolymer,"Methane, tetrachloro",CCl4,,,,1500000,,,,,,,,388.5,17.1,,,,66,3.3
214,Poly(vinyl acetate),Homopolymer,"Methane, tetrachloro",CCl4,,,,1500000,,,,,,,,402.8,12.2,,,,66,3.42
214,Poly(vinyl acetate),Homopolymer,"Methane, tetrachloro",CCl4,,,,1500000,,,,,,,,418.2,8.5,,,,66,3.65
214,Poly(vinyl acetate),Homopolymer,"Methane, trichloro",CHCl3,,6700,,40000,,,,,,,,353.2,63.49,,,,20,1.75
214,Poly(vinyl acetate),Homopolymer,"Methane, trichloro",CHCl3,,6700,,40000,,,,,,,,363.2,46.79,,,,20,1.82
214,Poly(vinyl acetate),Homopolymer,"Methane, trichloro",CHCl3,,6700,,40000,,,,,,,,373.2,36.1,,,,20,1.84
214,Poly(vinyl acetate),Homopolymer,"Methane, trichloro",CHCl3,,6700,,40000,,,,,,,,393.2,21.56,,,,20,1.97
214,Poly(vinyl acetate),Homopolymer,"Methane, trichloro",CHCl3,,,,331400,,,,,,,,373.2,36.9,,,,26,1.8
214,Poly(vinyl acetate),Homopolymer,"Methane, trichloro",CHCl3,,,,331400,,,,,,,,398.2,18.1,,,,26,2.12
214,Poly(vinyl acetate),Homopolymer,"Methane, trichloro",CHCl3,,,,331400,,,,,,,,423.2,11,,,,26,2.18
214,Poly(vinyl acetate),Homopolymer,"Methane, trichloro",CHCl3,,,,331400,,,,,,,,448.2,6.8,,,,26,2.37
214,Poly(vinyl acetate),Homopolymer,"Methane, trichloro",CHCl3,,47800,,435000,,,,,,,,392.7,28.2,,,,66,1.52
214,Poly(vinyl acetate),Homopolymer,"Methane, trichloro",CHCl3,,47800,,435000,,,,,,,,413.2,16.6,,,,66,1.73
214,Poly(vinyl acetate),Homopolymer,"Methane, trichloro",CHCl3,,47800,,435000,,,,,,,,433,9.78,,,,66,2.08
214,Poly(vinyl acetate),Homopolymer,"Methane, trichloro",CHCl3,,83350,,331400,,,,,,,,373.2,35.6,,,,2,1.87
215,Poly(vinyl acetate),Homopolymer,"Methane, trichloro",CHCl3,,83350,,331400,,,,,,,,398.2,18.9,,,,2,2.03
215,Poly(vinyl acetate),Homopolymer,"Methane, trichloro",CHCl3,,83350,,331400,,,,,,,,423.2,10.7,,,,2,2.24
215,Poly(vinyl acetate),Homopolymer,"Methane, trichloro",CHCl3,,83350,,331400,,,,,,,,448.2,6.5,,,,2,2.48
215,Poly(vinyl acetate),Homopolymer,"Methane, trichloro",CHCl3,,83350,,331400,,,,,,,,473.2,4.2,,,,2,2.73
215,Poly(vinyl acetate),Homopolymer,"Methane, trichloro",CHCl3,,86000,,,,,,,,,,408.2,,,2.18,C,53,
215,Poly(vinyl acetate),Homopolymer,"Methane, trichloro",CHCl3,,,,500000,,,,,,,,363,82.3,,,,66,1.04
215,Poly(vinyl acetate),Homopolymer,"Methane, trichloro",CHCl3,,,,500000,,,,,,,,387.5,34.8,,,,66,1.38
215,Poly(vinyl acetate),Homopolymer,"Methane, trichloro",CHCl3,,,,500000,,,,,,,,401.8,24.5,,,,66,1.45
215,Poly(vinyl acetate),Homopolymer,"Methane, trichloro",CHCl3,,,,500000,,,,,,,,417.1,16.8,,,,66,1.59
215,Poly(vinyl acetate),Homopolymer,"Methane, trichloro",CHCl3,,,,1500000,,,,,,,,373.8,42.9,,,,66,1.52
215,Poly(vinyl acetate),Homopolymer,"Methane, trichloro",CHCl3,,,,1500000,,,,,,,,388.5,27.9,,,,66,1.68
215,Poly(vinyl acetate),Homopolymer,"Methane, trichloro",CHCl3,,,,1500000,,,,,,,,402.8,19.3,,,,66,1.81
215,Poly(vinyl acetate),Homopolymer,"Methane, trichloro",CHCl3,,,,1500000,,,,,,,,418.2,13.6,,,,66,1.93
215,Poly(vinyl acetate),Homopolymer,"Methane, trichloro",CHCl3,,,,,,141420,,,,,,353.2,,-0.27,,C,28,
215,Poly(vinyl acetate),Homopolymer,"Methane, trichloro",CHCl3,,,,,,141420,,,,,,373.2,,-0.18,,C,28,
215,Poly(vinyl acetate),Homopolymer,Methyl chloride,CH3Cl,,83400,,,,,,,,,,398.2,2.77,,,,49,5
215,Poly(vinyl acetate),Homopolymer,Methyl chloride,CH3Cl,,83400,,,,,,,,,,423.2,2.02,,,,49,
215,Poly(vinyl acetate),Homopolymer,Methyl chloride,CH3Cl,,83400,,,,,,,,,,448.2,1.48,,,,49,
215,Poly(vinyl acetate),Homopolymer,Methyl chloride,CH3Cl,,83400,,,,,,,,,,473.2,1.08,,,,49,
215,Poly(vinyl acetate),Homopolymer,Methanol,CH4O,,,,45000,,,,,a,305.15,,398.2,11.5,,,,92,9.3
215,Poly(vinyl acetate),Homopolymer,Methanol,CH4O,,,,45000,,,,,a,305.15,,413.2,8.1,,,,92,9.15
215,Poly(vinyl acetate),Homopolymer,Methanol,CH4O,,,,257000,,,,,,,,353.2,,,10.05,C,43,
215,Poly(vinyl acetate),Homopolymer,Methanol,CH4O,,,,257000,,,,,,,,373.2,,,8.63,C,43,
215,Poly(vinyl acetate),Homopolymer,Methanol,CH4O,,,,257000,,,,,,,,393.2,,,7.74,C,43,
215,Poly(vinyl acetate),Homopolymer,Methanol,CH4O,,47800,,435000,,,,,,,,374.1,23.6,,,,66,8.84
216,Poly(vinyl acetate),Homopolymer,Methanol,CH4O,,47800,,435000,,,,,,,,392.7,14.3,,,,66,8.62
216,Poly(vinyl acetate),Homopolymer,Methanol,CH4O,,47800,,435000,,,,,,,,413.2,8.94,,,,66,8.28
216,Poly(vinyl acetate),Homopolymer,Methanol,CH4O,,47800,,435000,,,,,,,,433,5.75,,,,66,8.36
216,Poly(vinyl acetate),Homopolymer,Methanol,CH4O,,,,500000,,,,,,,,363,33.8,,,,66,8.73
216,Poly(vinyl acetate),Homopolymer,Methanol,CH4O,,,,500000,,,,,,,,387.5,16.1,,,,66,8.82
216,Poly(vinyl acetate),Homopolymer,Methanol,CH4O,,,,500000,,,,,,,,401.8,11.6,,,,66,8.41
216,Poly(vinyl acetate),Homopolymer,Methanol,CH4O,,,,500000,,,,,,,,417.1,8.76,,,,66,7.73
216,Poly(vinyl acetate),Homopolymer,Methanol,CH4O,,,,1500000,,,,,,,,373.8,18.7,,,,66,11.3
216,Poly(vinyl acetate),Homopolymer,Methanol,CH4O,,,,1500000,,,,,,,,388.5,13.5,,,,66,10.2
216,Poly(vinyl acetate),Homopolymer,Methanol,CH4O,,,,1500000,,,,,,,,402.8,10.5,,,,66,9.06
216,Poly(vinyl acetate),Homopolymer,Methanol,CH4O,,,,1500000,,,,,,,,418.2,7.92,,,,66,8.34
216,Poly(vinyl acetate),Homopolymer,Carbon dioxide,CO2,,83400,,,,,,,,,,398.2,0.514,,,,49,
216,Poly(vinyl acetate),Homopolymer,Carbon dioxide,CO2,,83400,,,,,,,,,,423.2,0.424,,,,49,
216,Poly(vinyl acetate),Homopolymer,Carbon dioxide,CO2,,83400,,,,,,,,,,448.2,0.339,,,,49,
216,Poly(vinyl acetate),Homopolymer,Carbon dioxide,CO2,,83400,,,,,,,,,,473.2,0.3,,,,49,
216,Poly(vinyl acetate),Homopolymer,"Acetic acid, nitrile",C2H3N,,,,45000,,,,,a,305.15,,398.2,25.2,,,,92,7.65
216,Poly(vinyl acetate),Homopolymer,"Acetic acid, nitrile",C2H3N,,,,45000,,,,,a,305.15,,413.2,18.5,,,,92,7.55
216,Poly(vinyl acetate),Homopolymer,"Acetic acid, nitrile",C2H3N,,47800,,435000,,,,,,,,392.7,30.9,,,,66,7.07
216,Poly(vinyl acetate),Homopolymer,"Acetic acid, nitrile",C2H3N,,47800,,435000,,,,,,,,413.2,18.7,,,,66,7.46
216,Poly(vinyl acetate),Homopolymer,"Acetic acid, nitrile",C2H3N,,47800,,435000,,,,,,,,433,11.9,,,,66,8
216,Poly(vinyl acetate),Homopolymer,Ethene,C2H4,,83400,,,,,,,,,,398.2,0.347,,,,49,
216,Poly(vinyl acetate),Homopolymer,Ethene,C2H4,,83400,,,,,,,,,,423.2,0.275,,,,49,
216,Poly(vinyl acetate),Homopolymer,Ethene,C2H4,,83400,,,,,,,,,,448.2,0.242,,,,49,
217,Poly(vinyl acetate),Homopolymer,Ethene,C2H4,,83400,,,,,,,,,,473.2,0.235,,,,49,
217,Poly(vinyl acetate),Homopolymer,"Ethane, 1,2-dichloro",C2H4Cl2,,,a,45000,,,,,a,305.15,,398.2,30.1,,,,89,2.56
217,Poly(vinyl acetate),Homopolymer,"Ethane, 1,2-dichloro",C2H4Cl2,,,a,45000,,,,,a,305.15,,413.2,21.2,,,,89,2.61
217,Poly(vinyl acetate),Homopolymer,"Ethane, 1,2-dichloro",C2H4Cl2,,,,45000,,,,,a,305.15,,398.2,29.5,,,,92,2.62
217,Poly(vinyl acetate),Homopolymer,"Ethane, 1,2-dichloro",C2H4Cl2,,,,45000,,,,,a,305.15,,413.2,21,,,,92,2.63
217,Poly(vinyl acetate),Homopolymer,"Ethane, 1,2-dichloro",C2H4Cl2,,83350,,331400,,,,,,,,373.2,55,,,,2,2.64
217,Poly(vinyl acetate),Homopolymer,"Ethane, 1,2-dichloro",C2H4Cl2,,83350,,331400,,,,,,,,398.2,27.7,,,,2,2.79
217,Poly(vinyl acetate),Homopolymer,"Ethane, 1,2-dichloro",C2H4Cl2,,83350,,331400,,,,,,,,423.2,15.5,,,,2,2.9
217,Poly(vinyl acetate),Homopolymer,"Ethane, 1,2-dichloro",C2H4Cl2,,83350,,331400,,,,,,,,448.2,9.3,,,,2,3.04
217,Poly(vinyl acetate),Homopolymer,"Ethane, 1,2-dichloro",C2H4Cl2,,83350,,331400,,,,,,,,473.2,5.8,,,,2,3.27
217,Poly(vinyl acetate),Homopolymer,"Ethane, 1,2-dichloro",C2H4Cl2,,,,,,141420,,,,,,353.2,,-0.01,,C,28,
217,Poly(vinyl acetate),Homopolymer,"Ethane, 1,2-dichloro",C2H4Cl2,,,,,,141420,,,,,,373.2,,0.04,,C,28,
217,Poly(vinyl acetate),Homopolymer,Acetaldehyde,C2H4O,,,,45000,,,,,a,305.15,,398.2,6.05,,,,92,6.54
217,Poly(vinyl acetate),Homopolymer,Acetaldehyde,C2H4O,,,,45000,,,,,a,305.15,,413.2,4.7,,,,92,6.56
217,Poly(vinyl acetate),Homopolymer,Acetic acid,C2H4O2,,,,45000,,,,,a,305.15,,398.2,132,,,,92,
217,Poly(vinyl acetate),Homopolymer,Acetic acid,C2H4O2,,,,45000,,,,,a,305.15,,413.2,79,,,,92,
217,Poly(vinyl acetate),Homopolymer,"Ethane, nitro",C2H5NO2,,,a,45000,,,,,a,305.15,,398.2,61.7,,,,89,3.64
217,Poly(vinyl acetate),Homopolymer,"Ethane, nitro",C2H5NO2,,,a,45000,,,,,a,305.15,,413.2,39.7,,,,89,3.84
217,Poly(vinyl acetate),Homopolymer,"Ethane, nitro",C2H5NO2,,,,45000,,,,,a,305.15,,398.2,62,,,,92,3.63
217,Poly(vinyl acetate),Homopolymer,"Ethane, nitro",C2H5NO2,,,,45000,,,,,a,305.15,,413.2,40,,,,92,3.81
218,Poly(vinyl acetate),Homopolymer,Ethane,C2H6,,83400,,,,,,,,,,398.2,0.276,,,,49,
218,Poly(vinyl acetate),Homopolymer,Ethane,C2H6,,83400,,,,,,,,,,423.2,0.248,,,,49,
218,Poly(vinyl acetate),Homopolymer,Ethane,C2H6,,83400,,,,,,,,,,448.2,0.219,,,,49,
218,Poly(vinyl acetate),Homopolymer,Ethane,C2H6,,83400,,,,,,,,,,473.2,0.201,,,,49,