Page,Solute,Solute_type,Solvent,Solvent_formula,MN_symbol,MN,MW_symbol,MW,MV_symbol,MV,per composition,per substitution,Tg_symbol,Tg (K),Note,T (K),Vg (cm3/g),chi_inf,omega_inf,U/C,Ref,calc_omega_inf
39,Poly(n-butyl methacrylate),Homopolymer,Benzene,C6H6,,,,,,,,,,293.15,,398.2,23,,,,2,4.07
39,Poly(n-butyl methacrylate),Homopolymer,Benzene,C6H6,,,,,,,,,,293.15,,423.2,11.9,,,,2,4.73
39,Poly(n-butyl methacrylate),Homopolymer,Benzene,C6H6,,,,,,,,,,293.15,,423.2,12.5,,,,2,4.51
39,Poly(n-butyl methacrylate),Homopolymer,Benzene,C6H6,,,,,,,,,,293.15,,448.2,7.1,,,,2,5.14
39,Poly(n-butyl methacrylate),Homopolymer,Benzene,C6H6,,,,,,,,,,293.15,,473.2,4.2,,,,2,5.98
40,Poly(n-butyl methacrylate),Homopolymer,Phenol,C6H6O,,8716,,9239,,,,,,,,373,1865.103,,,,99,2.39
40,Poly(n-butyl methacrylate),Homopolymer,Phenol,C6H6O,,8716,,9239,,,,,,,,393,764.21,,,,99,2.48
40,Poly(n-butyl methacrylate),Homopolymer,Phenol,C6H6O,,8716,,9239,,,,,,,,413,346.777,,,,99,2.58
40,Poly(n-butyl methacrylate),Homopolymer,Aniline,C6H7N,,8716,,9239,,,,,,,,373,1089.857,,,,99,3.75
40,Poly(n-butyl methacrylate),Homopolymer,Aniline,C6H7N,,8716,,9239,,,,,,,,393,468.973,,,,99,3.86
40,Poly(n-butyl methacrylate),Homopolymer,Aniline,C6H7N,,8716,,9239,,,,,,,,413,226.941,,,,99,3.95
40,Poly(n-butyl methacrylate),Homopolymer,Cyclohexanone,C6H10O,,8716,,9239,,,,,,,,373,258.831,,,,99,4.82
40,Poly(n-butyl methacrylate),Homopolymer,Cyclohexanone,C6H10O,,8716,,9239,,,,,,,,393,131.914,,,,99,4.89
40,Poly(n-butyl methacrylate),Homopolymer,Cyclohexanone,C6H10O,,8716,,9239,,,,,,,,413,75.452,,,,99,4.78
40,Poly(n-butyl methacrylate),Homopolymer,Cyclohexanone,C6H10O,,,,,,,,,,293.15,,373.2,276.7,,,,2,4.49
40,Poly(n-butyl methacrylate),Homopolymer,Cyclohexanone,C6H10O,,,,,,,,,,293.15,,398.2,118.8,,,,2,4.64
40,Poly(n-butyl methacrylate),Homopolymer,Cyclohexanone,C6H10O,,,,,,,,,,293.15,,423.2,53.9,,,,2,5.11
40,Poly(n-butyl methacrylate),Homopolymer,Cyclohexanone,C6H10O,,,,,,,,,,293.15,,448.2,29.1,,,,2,5.21
40,Poly(n-butyl methacrylate),Homopolymer,Cyclohexanone,C6H10O,,,,,,,,,,293.15,,473.2,16.2,,,,2,5.58
40,Poly(n-butyl methacrylate),Homopolymer,Cyclohexane,C6H12,,8716,,9239,,,,,,,,373,23.612,,,,99,6.96
40,Poly(n-butyl methacrylate),Homopolymer,Cyclohexane,C6H12,,8716,,9239,,,,,,,,393,15.492,,,,99,6.59
40,Poly(n-butyl methacrylate),Homopolymer,Cyclohexane,C6H12,,8716,,9239,,,,,,,,413,10.397,,,,99,6.46
40,Poly(n-butyl methacrylate),Homopolymer,Cyclohexane,C6H12,,73500,,320000,,,,,,,,403.2,,,7.13,C,42,
40,Poly(n-butyl methacrylate),Homopolymer,Cyclohexane,C6H12,,73500,,320000,,,,,,,,413.2,,0.564,,C,19,
40,Poly(n-butyl methacrylate),Homopolymer,Cyclohexane,C6H12,,73500,,320000,,,,,,,,413.2,,,7.08,C,42,
40,Poly(n-butyl methacrylate),Homopolymer,Cyclohexane,C6H12,,91000,,,,372000,,,a,291,,343.2,48.1,,,,74,7.96
40,Poly(n-butyl methacrylate),Homopolymer,Cyclohexane,C6H12,,91000,,,,372000,,,a,291,,373.2,24.86,,,,74,6.59
41,Poly(n-butyl methacrylate),Homopolymer,Cyclohexanol,C6H12O,,73500,,320000,,,,,,,,393.2,,,5.53,C,42,
41,Poly(n-butyl methacrylate),Homopolymer,Cyclohexanol,C6H12O,,73500,,320000,,,,,,,,403.2,,,5.31,C,42,
41,Poly(n-butyl methacrylate),Homopolymer,Cyclohexanol,C6H12O,,73500,,320000,,,,,,,,413.2,,,5.1,C,42,
41,Poly(n-butyl methacrylate),Homopolymer,"2-Pentanone, 4-methyl",C6H12O,,8716,,9239,,,,,,,,373,69.387,,,,99,5.49
41,Poly(n-butyl methacrylate),Homopolymer,"2-Pentanone, 4-methyl",C6H12O,,8716,,9239,,,,,,,,393,36.821,,,,99,5.85
41,Poly(n-butyl methacrylate),Homopolymer,"2-Pentanone, 4-methyl",C6H12O,,8716,,9239,,,,,,,,413,22.292,,,,99,5.88
41,Poly(n-butyl methacrylate),Homopolymer,"2-Pentanone, 4-methyl",C6H12O,,,,,,,,,,293.15,,373.2,66.1,,,,2,5.74
41,Poly(n-butyl methacrylate),Homopolymer,"2-Pentanone, 4-methyl",C6H12O,,,,,,,,,,293.15,,398.2,33.3,,,,2,5.65
41,Poly(n-butyl methacrylate),Homopolymer,"2-Pentanone, 4-methyl",C6H12O,,,,,,,,,,293.15,,423.2,16.2,,,,2,6.43
41,Poly(n-butyl methacrylate),Homopolymer,"2-Pentanone, 4-methyl",C6H12O,,,,,,,,,,293.15,,448.2,9.3,,,,2,6.74
41,Poly(n-butyl methacrylate),Homopolymer,"2-Pentanone, 4-methyl",C6H12O,,,,,,,,,,293.15,,473.2,5.9,,,,2,6.84
41,Poly(n-butyl methacrylate),Homopolymer,"Acetic acid, butyl ester",C6H12O2,,73500,,320000,,,,,,,,393.2,,,5.49,C,42,
41,Poly(n-butyl methacrylate),Homopolymer,"Acetic acid, butyl ester",C6H12O2,,73500,,320000,,,,,,,,403.2,,,5.46,C,42,
41,Poly(n-butyl methacrylate),Homopolymer,"Acetic acid, butyl ester",C6H12O2,,73500,,320000,,,,,,,,413.2,,,5.43,C,42,
41,Poly(n-butyl methacrylate),Homopolymer,"Acetic acid, butyl ester",C6H12O2,,,,,,,,,,293.15,,373.2,89.9,,,,2,5.02
41,Poly(n-butyl methacrylate),Homopolymer,"Acetic acid, butyl ester",C6H12O2,,,,,,,,,,293.15,,398.2,41.7,,,,2,5.04
41,Poly(n-butyl methacrylate),Homopolymer,"Acetic acid, butyl ester",C6H12O2,,,,,,,,,,293.15,,423.2,19.5,,,,2,5.65
41,Poly(n-butyl methacrylate),Homopolymer,"Acetic acid, butyl ester",C6H12O2,,,,,,,,,,293.15,,448.2,10.6,,,,2,6.03
41,Poly(n-butyl methacrylate),Homopolymer,"Acetic acid, butyl ester",C6H12O2,,,,,,,,,,293.15,,473.2,6.2,,,,2,6.48
41,Poly(n-butyl methacrylate),Homopolymer,Hexane,C6H14,,8716,,9239,,,,,,,,373,11.624,,,,99,10.3
41,Poly(n-butyl methacrylate),Homopolymer,Hexane,C6H14,,8716,,9239,,,,,,,,393,7.738,,,,99,9.91
41,Poly(n-butyl methacrylate),Homopolymer,Hexane,C6H14,,8716,,9239,,,,,,,,413,5.39,,,,99,9.62
41,Poly(n-butyl methacrylate),Homopolymer,Hexane,C6H14,,35000,,,,,,,,,,393.2,6.7,,,,69,11.4
42,Poly(n-butyl methacrylate),Homopolymer,Hexane,C6H14,,91000,,,,372000,,,a,291,,343.2,24.52,,,,74,10.8
42,Poly(n-butyl methacrylate),Homopolymer,Hexane,C6H14,,91000,,,,372000,,,a,291,,373.2,12.23,,,,74,9.76
42,Poly(n-butyl methacrylate),Homopolymer,Hexane,C6H14,,,,,,,,,,293.15,,323.2,48.2,,,,2,10.4
42,Poly(n-butyl methacrylate),Homopolymer,Hexane,C6H14,,,,,,,,,,293.15,,348.2,21.6,,,,2,10.6
42,Poly(n-butyl methacrylate),Homopolymer,Hexane,C6H14,,,,,,,,,,293.15,,373.2,11.6,,,,2,10.3
42,Poly(n-butyl methacrylate),Homopolymer,Hexane,C6H14,,,,,,,,,,293.15,,398.2,7,,,,2,9.85
42,Poly(n-butyl methacrylate),Homopolymer,Hexane,C6H14,,,,,,,,,,293.15,,423.2,4.3,,,,2,10.1
42,Poly(n-butyl methacrylate),Homopolymer,Benzaldehyde,C7H6O,,8716,,9239,,,,,,,,373,552.077,,,,99,4.9
42,Poly(n-butyl methacrylate),Homopolymer,Benzaldehyde,C7H6O,,8716,,9239,,,,,,,,393,269.643,,,,99,4.71
42,Poly(n-butyl methacrylate),Homopolymer,Benzaldehyde,C7H6O,,8716,,9239,,,,,,,,413,140.386,,,,99,4.64
42,Poly(n-butyl methacrylate),Homopolymer,Toluene,C7H8,,8716,,9239,,,,,,,,373,81.856,,,,99,4.22
42,Poly(n-butyl methacrylate),Homopolymer,Toluene,C7H8,,8716,,9239,,,,,,,,393,47.08,,,,99,4.21
42,Poly(n-butyl methacrylate),Homopolymer,Toluene,C7H8,,8716,,9239,,,,,,,,413,28.257,,,,99,4.31
42,Poly(n-butyl methacrylate),Homopolymer,Toluene,C7H8,,73500,,320000,,,,,,,,413.2,,0.207,,C,19,
42,Poly(n-butyl methacrylate),Homopolymer,Toluene,C7H8,,91000,,,,372000,,,a,291,,343.2,236.16,,,,74,3.91
42,Poly(n-butyl methacrylate),Homopolymer,Toluene,C7H8,,91000,,,,372000,,,a,291,,373.2,87.8,,,,74,3.92
42,Poly(n-butyl methacrylate),Homopolymer,Toluene,C7H8,,,,,,,,,,293.15,,323.2,539.4,,,,2,3.77
42,Poly(n-butyl methacrylate),Homopolymer,Toluene,C7H8,,,,,,,,,,293.15,,348.2,188.4,,,,2,4.1
42,Poly(n-butyl methacrylate),Homopolymer,Toluene,C7H8,,,,,,,,,,293.15,,373.2,81,,,,2,4.24
42,Poly(n-butyl methacrylate),Homopolymer,Toluene,C7H8,,,,,,,,,,293.15,,398.2,42.8,,,,2,4.06
42,Poly(n-butyl methacrylate),Homopolymer,Toluene,C7H8,,,,,,,,,,293.15,,423.2,22.5,,,,2,4.32
42,Poly(n-butyl methacrylate),Homopolymer,Heptane,C7H16,,91000,,,,372000,,,a,291,,343.2,56.27,,,,74,10.3
42,Poly(n-butyl methacrylate),Homopolymer,Heptane,C7H16,,91000,,,,372000,,,a,291,,373.2,25.07,,,,74,9.06
43,Poly(n-butyl methacrylate),Homopolymer,"Benzene, 1,4-dimethyl",C8H10,,8716,,9239,,,,,,,,373,158.801,,,,99,4.33
43,Poly(n-butyl methacrylate),Homopolymer,"Benzene, 1,4-dimethyl",C8H10,,8716,,9239,,,,,,,,393,85.369,,,,99,4.32
43,Poly(n-butyl methacrylate),Homopolymer,"Benzene, 1,4-dimethyl",C8H10,,8716,,9239,,,,,,,,413,47.465,,,,99,4.49
43,Poly(n-butyl methacrylate),Homopolymer,"Benzene, 1,4-dimethyl",C8H10,,91000,,,,372000,,,a,291,,343.2,514.96,,,,74,4
43,Poly(n-butyl methacrylate),Homopolymer,"Benzene, 1,4-dimethyl",C8H10,,91000,,,,372000,,,a,291,,373.2,171.97,,,,74,3.98
43,Poly(n-butyl methacrylate),Homopolymer,"Benzene, 1,4-dimethyl",C8H10,,,,,,,,,,293.15,,323.2,1277.2,,,,2,
43,Poly(n-butyl methacrylate),Homopolymer,"Benzene, 1,4-dimethyl",C8H10,,,,,,,,,,293.15,,348.2,399.3,,,,2,4.23
43,Poly(n-butyl methacrylate),Homopolymer,"Benzene, 1,4-dimethyl",C8H10,,,,,,,,,,293.15,,373.2,154.5,,,,2,4.43
43,Poly(n-butyl methacrylate),Homopolymer,"Benzene, 1,4-dimethyl",C8H10,,,,,,,,,,293.15,,398.2,83.8,,,,2,3.8
43,Poly(n-butyl methacrylate),Homopolymer,"Benzene, 1,4-dimethyl",C8H10,,,,,,,,,,293.15,,423.2,37.1,,,,2,4.46
43,Poly(n-butyl methacrylate),Homopolymer,"Benzene, ethyl",C8H10,,8716,,9239,,,,,,,,373,151.698,,,,99,4.22
43,Poly(n-butyl methacrylate),Homopolymer,"Benzene, ethyl",C8H10,,8716,,9239,,,,,,,,393,82.185,,,,99,4.21
43,Poly(n-butyl methacrylate),Homopolymer,"Benzene, ethyl",C8H10,,8716,,9239,,,,,,,,413,46.849,,,,99,4.29
43,Poly(n-butyl methacrylate),Homopolymer,"Heptane, 2-methyl",C8H18,,91000,,,,372000,,,a,291,,343.2,33.54,,,,74,28.4
43,Poly(n-butyl methacrylate),Homopolymer,"Heptane, 2-methyl",C8H18,,91000,,,,372000,,,a,291,,373.2,22.27,,,,74,15.4
43,Poly(n-butyl methacrylate),Homopolymer,Octane,C8H18,,73500,,320000,,,,,,,,403.2,,,9.92,C,42,
43,Poly(n-butyl methacrylate),Homopolymer,Octane,C8H18,,73500,,320000,,,,,,,,413.2,,0.796,,C,19,
43,Poly(n-butyl methacrylate),Homopolymer,Octane,C8H18,,73500,,320000,,,,,,,,413.2,,,9.81,C,42,
43,Poly(n-butyl methacrylate),Homopolymer,Octane,C8H18,,91000,,,,372000,,,a,291,,343.2,126.74,,,,74,10.2
43,Poly(n-butyl methacrylate),Homopolymer,Octane,C8H18,,91000,,,,372000,,,a,291,,373.2,48.86,,,,74,9.03
44,Poly(n-butyl methacrylate),Homopolymer,"Pentane, 2,2,4-trimethyl",C8H18,,73500,,320000,,,,,,,,403.2,,,9.39,C,42,
44,Poly(n-butyl methacrylate),Homopolymer,"Pentane, 2,2,4-trimethyl",C8H18,,73500,,320000,,,,,,,,413.2,,0.732,,C,19,
44,Poly(n-butyl methacrylate),Homopolymer,"Pentane, 2,2,4-trimethyl",C8H18,,73500,,320000,,,,,,,,413.2,,,9.29,C,42,
44,Poly(n-butyl methacrylate),Homopolymer,Nonane,C9H20,,91000,,,,372000,,,a,291,,373.2,96.23,,,,74,9.01
44,Poly(n-butyl methacrylate),Homopolymer,"Benzene, butyl",C10H14,,8716,,9239,,,,,,,,373,530.604,,,,99,4.33
44,Poly(n-butyl methacrylate),Homopolymer,"Benzene, butyl",C10H14,,8716,,9239,,,,,,,,393,253.573,,,,99,4.28
44,Poly(n-butyl methacrylate),Homopolymer,"Benzene, butyl",C10H14,,8716,,9239,,,,,,,,413,128.497,,,,99,4.38
44,Poly(n-butyl methacrylate),Homopolymer,"Benzene, butyl",C10H14,,73500,,320000,,,,,,,,393.2,,,4.64,C,42,
44,Poly(n-butyl methacrylate),Homopolymer,"Benzene, butyl",C10H14,,73500,,320000,,,,,,,,403.2,,,4.6,C,42,
44,Poly(n-butyl methacrylate),Homopolymer,"Benzene, butyl",C10H14,,73500,,320000,,,,,,,,413.2,,0.28,,C,19,
44,Poly(n-butyl methacrylate),Homopolymer,"Benzene, butyl",C10H14,,73500,,320000,,,,,,,,413.2,,,4.6,C,42,
44,Poly(n-butyl methacrylate),Homopolymer,"Benzene, tert-butyl",C10H14,,73500,,320000,,,,,,,,393.2,,,4.28,C,42,
44,Poly(n-butyl methacrylate),Homopolymer,"Benzene, tert-butyl",C10H14,,73500,,320000,,,,,,,,403.2,,,4.26,C,42,
44,Poly(n-butyl methacrylate),Homopolymer,"Benzene, tert-butyl",C10H14,,73500,,320000,,,,,,,,413.2,,0.215,,C,19,
44,Poly(n-butyl methacrylate),Homopolymer,"Benzene, tert-butyl",C10H14,,73500,,320000,,,,,,,,413.2,,,4.28,C,42,
44,Poly(n-butyl methacrylate),Homopolymer,"Cyclohexane, butyl",C10H20,,73500,,320000,,,,,,,,393.2,,,7.6,C,42,
44,Poly(n-butyl methacrylate),Homopolymer,"Cyclohexane, butyl",C10H20,,73500,,320000,,,,,,,,403.2,,,7.43,C,42,
44,Poly(n-butyl methacrylate),Homopolymer,"Cyclohexane, butyl",C10H20,,73500,,320000,,,,,,,,413.2,,,7.27,C,42,
44,Poly(n-butyl methacrylate),Homopolymer,Decane,C10H22,,73500,,320000,,,,,,,,413.2,,0.833,,C,19,
45,Poly(n-butyl methacrylate),Homopolymer,Decane,C10H22,,91000,,,,372000,,,a,291,,343.2,623.52,,,,74,10.3
45,Poly(n-butyl methacrylate),Homopolymer,Decane,C10H22,,91000,,,,372000,,,a,291,,373.2,188.76,,,,74,9.14
45,Poly(n-butyl methacrylate),Homopolymer,"Heptane, 3,4,5-trimethyl",C10H22,,73500,,320000,,,,,,,,413.2,,0.687,,C,19,
46,Poly(epsilon-caprolactone),Homopolymer,"Methane, tetrachloro",CCl4,,,,36000,,,,,,,4,393.2,17.4,,,,37,2.93
46,Poly(epsilon-caprolactone),Homopolymer,"Methane, tetrachloro",CCl4,,,,37000,,,,,,,,353.2,55.4,,,,60,2.5
46,Poly(epsilon-caprolactone),Homopolymer,"Methane, tetrachloro",CCl4,,15500,,40460,,,,,,208,,393.2,,,2.53,C,9,
46,Poly(epsilon-caprolactone),Homopolymer,"Methane, trichloro",CHCl3,,,,36000,,,,,,,4,393.2,28,,,,37,1.52
46,Poly(epsilon-caprolactone),Homopolymer,"Methane, trichloro",CHCl3,,,,37000,,,,,,,,353.2,94.51,,,,60,1.18
46,Poly(epsilon-caprolactone),Homopolymer,"Methane, trichloro",CHCl3,,15500,,40460,,,,,,208,,393.2,,,1.57,C,9,
46,Poly(epsilon-caprolactone),Homopolymer,"Methane, dichloro",CH2Cl2,,,,36000,,,,,,,4,393.2,13.2,,,,37,2.53
46,Poly(epsilon-caprolactone),Homopolymer,"Methane, dichloro",CH2Cl2,,,,37000,,,,,,,,353.2,46.42,,,,60,1.75
46,Poly(epsilon-caprolactone),Homopolymer,"Ethane, 1,1,1-trichloro",C2H3Cl3,,,,37000,,,,,,,,353.2,57.57,,,,60,2.55
46,Poly(epsilon-caprolactone),Homopolymer,"Acetic acid, nitrile",C2H3N,,15500,,40460,,,,,,208,,393.2,,,10.2,C,9,
46,Poly(epsilon-caprolactone),Homopolymer,"Ethane, 1,1-dichloro",C2H4Cl2,,,,37000,,,,,,,,353.2,47.78,,,,60,2.5
46,Poly(epsilon-caprolactone),Homopolymer,"Ethane, 1,2-dichloro",C2H4Cl2,,,,37000,,,,,,,,353.2,125.88,,,,60,2.07
46,Poly(epsilon-caprolactone),Homopolymer,Ethanol,C2H6O,,15500,,40460,,,,,,208,,393.2,,,11.1,C,9,
47,Poly(epsilon-caprolactone),Homopolymer,2-Propanone,C3H6O,,,,36000,,,,,,,4,393.2,10.3,,,,37,7.23
47,Poly(epsilon-caprolactone),Homopolymer,2-Propanone,C3H6O,,,,37000,,,,,,,,353.2,29.87,,,,60,6.59
47,Poly(epsilon-caprolactone),Homopolymer,"Acetic acid, methyl ester",C3H6O2,,,,37000,,,,,,,,353.2,31.23,,,,60,5.01
47,Poly(epsilon-caprolactone),Homopolymer,2-Butanone,C4H8O,,,,36000,,,,,,,4,393.2,17.1,,,,37,6.42
47,Poly(epsilon-caprolactone),Homopolymer,2-Butanone,C4H8O,,,,37000,,,,,,,,353.2,57.76,,,,60,5.54
47,Poly(epsilon-caprolactone),Homopolymer,2-Butanone,C4H8O,,15500,,40460,,,,,,208,,393.2,,,5.73,C,9,
47,Poly(epsilon-caprolactone),Homopolymer,"Furane, tetrahydro",C4H8O,,,,37000,,,,,,,,353.2,52.77,,,,60,3.98
47,Poly(epsilon-caprolactone),Homopolymer,"Acetic acid, ethyl ester",C4H8O2,,,,36000,,,,,,,4,393.2,14.7,,,,37,5.64
47,Poly(epsilon-caprolactone),Homopolymer,"Acetic acid, ethyl ester",C4H8O2,,,,37000,,,,,,,,353.2,49.39,,,,60,4.95
47,Poly(epsilon-caprolactone),Homopolymer,"1,4-Dioxane",C4H8O2,,,,37000,,,,,,,,353.2,164.37,,,,60,3.21
47,Poly(epsilon-caprolactone),Homopolymer,"Butane, 1-chloro",C4H9Cl,,,,37000,,,,,,,,353.2,48.81,,,,60,4.93
47,Poly(epsilon-caprolactone),Homopolymer,Pyridine,C5H5N,,15500,,40460,,,,,,208,,393.2,,,3.4,C,9,
47,Poly(epsilon-caprolactone),Homopolymer,"Acetic acid, propyl ester",C5H10O2,,,,37000,,,,,,,,353.2,95.65,,,,60,4.84
48,Poly(epsilon-caprolactone),Homopolymer,"Pentane, 1-chloro",C5H11Cl,,,,37000,,,,,,,,353.2,101.33,,,,60,5.08
48,Poly(epsilon-caprolactone),Homopolymer,Pentane,C5H12,,,,36000,,,,,,,4,393.2,2.4,,,,37,17.8
48,Poly(epsilon-caprolactone),Homopolymer,Pentane,C5H12,,,,37000,,,,,,,,353.2,5.78,,,,60,16.5
48,Poly(epsilon-caprolactone),Homopolymer,"Benzene, fluoro",C6H5F,,15500,,40460,,,,,,208,,393.2,,,3.04,C,9,
48,Poly(epsilon-caprolactone),Homopolymer,Benzene,C6H6,,,,36000,,,,,,,4,393.2,26.1,,,,37,4.01
48,Poly(epsilon-caprolactone),Homopolymer,Benzene,C6H6,,,,37000,,,,,,,,353.2,82.22,,,,60,3.63
48,Poly(epsilon-caprolactone),Homopolymer,Cyclohexene,C6H10,,,,37000,,,,,,,,353.2,44.2,,,,60,7.14
48,Poly(epsilon-caprolactone),Homopolymer,Cyclohexane,C6H12,,,,37000,,,,,,,,353.2,28.13,,,,60,10.1
48,Poly(epsilon-caprolactone),Homopolymer,"Acetic acid, butyl ester",C6H12O2,,,,37000,,,,,,,,353.2,194.63,,,,60,4.76
48,Poly(epsilon-caprolactone),Homopolymer,Hexane,C6H14,,,,36000,,,,,,,4,393.2,4.5,,,,37,17
48,Poly(epsilon-caprolactone),Homopolymer,Hexane,C6H14,,,,37000,,,,,,,,353.2,12.06,,,,60,16.5
48,Poly(epsilon-caprolactone),Homopolymer,Hexane,C6H14,,15500,,40460,,,,,,208,,393.2,,,14,C,9,
49,Poly(epsilon-caprolactone),Homopolymer,Toluene,C7H8,,,,37000,,,,,,,,353.2,172.46,,,,60,3.76
49,Poly(epsilon-caprolactone),Homopolymer,Heptane,C7H16,,,,36000,,,,,,,4,393.2,8.6,,,,37,15.7
49,Poly(epsilon-caprolactone),Homopolymer,Heptane,C7H16,,,,37000,,,,,,,,353.2,24.5,,,,60,16.9
49,Poly(epsilon-caprolactone),Homopolymer,Octane,C8H18,,,,37000,,,,,,,,353.2,49.52,,,,60,17.7
49,Poly(epsilon-caprolactone),Homopolymer,Nonane,C9H20,,,,37000,,,,,,,,353.2,99.79,,,,60,18.7
50,Polychloroprene,Homopolymer,"Methane, tetrachloro",CCl4,,,,,,,,,,,,338.2,,0.322,,C,50,
50,Polychloroprene,Homopolymer,"Methane, tetrachloro",CCl4,,,,,,,,,,,,348.2,,0.281,,C,50,
50,Polychloroprene,Homopolymer,"Methane, tetrachloro",CCl4,,,,,,,,,,,,358.2,,0.251,,C,50,
50,Polychloroprene,Homopolymer,"Methane, trichloro",CHCl3,,,,,,,,,,,,338.2,,0.07,,C,50,
50,Polychloroprene,Homopolymer,"Methane, trichloro",CHCl3,,,,,,,,,,,,348.2,,0.054,,C,50,
50,Polychloroprene,Homopolymer,"Methane, trichloro",CHCl3,,,,,,,,,,,,358.2,,0.039,,C,50,
50,Polychloroprene,Homopolymer,"Butane, 1-chloro",C4H9Cl,,,,,,,,,,,,338.2,,0.409,,C,50,
50,Polychloroprene,Homopolymer,"Butane, 1-chloro",C4H9Cl,,,,,,,,,,,,348.2,,0.375,,C,50,
50,Polychloroprene,Homopolymer,"Butane, 1-chloro",C4H9Cl,,,,,,,,,,,,358.2,,0.325,,C,50,
50,Polychloroprene,Homopolymer,1-Butanol,C4H10O,,,,,,,,,,,,338.2,,0.712,,C,50,
50,Polychloroprene,Homopolymer,1-Butanol,C4H10O,,,,,,,,,,,,348.2,,0.641,,C,50,
50,Polychloroprene,Homopolymer,1-Butanol,C4H10O,,,,,,,,,,,,358.2,,0.526,,C,50,
50,Polychloroprene,Homopolymer,2-Pentanone,C5H10O,,,,,,,,,,,,338.2,,0.153,,C,50,
50,Polychloroprene,Homopolymer,2-Pentanone,C5H10O,,,,,,,,,,,,348.2,,0.144,,C,50,
50,Polychloroprene,Homopolymer,2-Pentanone,C5H10O,,,,,,,,,,,,358.2,,0.121,,C,50,
50,Polychloroprene,Homopolymer,Benzene,C6H6,,,,,,,,,,,,338.2,,0.126,,C,50,
50,Polychloroprene,Homopolymer,Benzene,C6H6,,,,,,,,,,,,348.2,,0.106,,C,50,
50,Polychloroprene,Homopolymer,Benzene,C6H6,,,,,,,,,,,,358.2,,0.093,,C,50,
51,Polychloroprene,Homopolymer,1-Octene,C8H16,,,,,,,,,,,,338.2,,0.932,,C,50,
51,Polychloroprene,Homopolymer,1-Octene,C8H16,,,,,,,,,,,,348.2,,0.883,,C,50,
51,Polychloroprene,Homopolymer,1-Octene,C8H16,,,,,,,,,,,,358.2,,0.85,,C,50,
51,Polychloroprene,Homopolymer,Octane,C8H18,,,,,,,,,,,,338.2,,1.204,,C,50,
51,Polychloroprene,Homopolymer,Octane,C8H18,,,,,,,,,,,,348.2,,1.146,,C,50,
51,Polychloroprene,Homopolymer,Octane,C8H18,,,,,,,,,,,,358.2,,1.083,,C,50,
51,Polychloroprene,Homopolymer,Decane,C10H22,,,,,,,,,,,,338.2,,1.304,,C,50,
51,Polychloroprene,Homopolymer,Decane,C10H22,,,,,,,,,,,,348.2,,1.254,,C,50,
51,Polychloroprene,Homopolymer,Decane,C10H22,,,,,,,,,,,,358.2,,1.194,,C,50,
52,Poly(diethylsiloxane),Homopolymer,Benzene,C6H6,,112000,,280000,,,,,,,,333.2,90.7,,,,12,6.29
52,Poly(diethylsiloxane),Homopolymer,Benzene,C6H6,,112000,,280000,,,,,,,,343.2,66.2,,,,12,6.16
52,Poly(diethylsiloxane),Homopolymer,Benzene,C6H6,,112000,,280000,,,,,,,,353.2,49.2,,,,12,6.07
52,Poly(diethylsiloxane),Homopolymer,Benzene,C6H6,,112000,,280000,,,,,,,,363.2,37.2,,,,12,6.01
52,Poly(diethylsiloxane),Homopolymer,Benzene,C6H6,,112000,,280000,,,,,,,,373.2,28.6,,,,12,5.96
52,Poly(diethylsiloxane),Homopolymer,Benzene,C6H6,,112000,,280000,,,,,,,,383.2,22.3,,,,12,5.94
52,Poly(diethylsiloxane),Homopolymer,Benzene,C6H6,,112000,,280000,,,,,,,,393.2,17.7,,,,12,5.92
52,Poly(diethylsiloxane),Homopolymer,Benzene,C6H6,,112000,,280000,,,,,,,,403.2,14.1,,,,12,5.96
52,Poly(diethylsiloxane),Homopolymer,Hexane,C6H14,,112000,,280000,,,,,,,,333.2,,,6.18,C,12,
52,Poly(diethylsiloxane),Homopolymer,Hexane,C6H14,,112000,,280000,,,,,,,,343.2,42.4,,,,12,6.25
52,Poly(diethylsiloxane),Homopolymer,Hexane,C6H14,,112000,,280000,,,,,,,,353.2,31.5,,,,12,6.33