Page,Solute,Solute_type,Solvent,Solvent_formula,MN_symbol,MN,MW_symbol,MW,MV_symbol,MV,per composition,per substitution,Tg_symbol,Tg (K),Note,T (K),Vg (cm3/g),chi_inf,omega_inf,U/C,Ref,calc_omega_inf
193,Polystyrene,Homopolymer,"Heptane, 2-methyl",C8H18,,50660,,53700,,,,,,,47,418,,,10.09,C,11,
193,Polystyrene,Homopolymer,"Heptane, 2-methyl",C8H18,,50660,,53700,,,,,,,47,423,,,10.13,C,11,
193,Polystyrene,Homopolymer,"Heptane, 2-methyl",C8H18,,50660,,53700,,,,,,,47,433,,,9.72,C,11,
193,Polystyrene,Homopolymer,"Heptane, 2-methyl",C8H18,,50660,,53700,,,,,,,47,443,,,9.54,C,11,
193,Polystyrene,Homopolymer,"Heptane, 2-methyl",C8H18,,50660,,53700,,,,,,,47,448,,,9.54,C,11,
193,Polystyrene,Homopolymer,"Heptane, 2-methyl",C8H18,,50660,,53700,,,,,,,47,463,,,9.03,C,11,
193,Polystyrene,Homopolymer,Octane,C8H18,a,600,a,660,,,,,,,,313.2,,0.95,,C,31,
193,Polystyrene,Homopolymer,Octane,C8H18,,1709,,1811,,,,,,,,413.2,,0.894,,C,19,
194,Polystyrene,Homopolymer,Octane,C8H18,,16510,,17500,,,,,,,43,423,,,12.2,C,38,
194,Polystyrene,Homopolymer,Octane,C8H18,,20000,,,,,,,,351,,435.5,1.89,,,,56,45.7
194,Polystyrene,Homopolymer,Octane,C8H18,,20000,,,,,,,,351,,445,1.99,,,,56,35.7
194,Polystyrene,Homopolymer,Octane,C8H18,,20000,,,,,,,,351,,492.9,1.53,,,,56,20.5
194,Polystyrene,Homopolymer,Octane,C8H18,,20000,,,,,,,,351,,502.6,2.05,,,,56,13.3
194,Polystyrene,Homopolymer,Octane,C8H18,,50660,,53700,,,,,,,47,403,,,10.38,C,11,
194,Polystyrene,Homopolymer,Octane,C8H18,,50660,,53700,,,,,,,47,418,,,9.8,C,11,
194,Polystyrene,Homopolymer,Octane,C8H18,,50660,,53700,,,,,,,47,423,,,9.54,C,11,
194,Polystyrene,Homopolymer,Octane,C8H18,,50660,,53700,,,,,,,47,433,,,9.34,C,11,
194,Polystyrene,Homopolymer,Octane,C8H18,,50660,,53700,,,,,,,47,443,,,9.04,C,11,
194,Polystyrene,Homopolymer,Octane,C8H18,,50660,,53700,,,,,,,47,448,,,8.99,C,11,
194,Polystyrene,Homopolymer,Octane,C8H18,,50660,,53700,,,,,,,47,463,,,8.73,C,11,
194,Polystyrene,Homopolymer,Octane,C8H18,,76000,,82000,,,,,,368.45,42,423.2,,,14.83,C,86,
194,Polystyrene,Homopolymer,Octane,C8H18,,110000,,116600,,,,,,,,423.2,,,7.9,C,9,
194,Polystyrene,Homopolymer,"Pentane, 2,2,4-trimethyl",C8H18,a,600,a,660,,,,,,,,313.2,,1.11,,C,31,
194,Polystyrene,Homopolymer,"Pentane, 2,2,4-trimethyl",C8H18,,1709,,1811,,,,,,,,413.2,,1.03,,C,19,
194,Polystyrene,Homopolymer,"Pentane, 2,2,4-trimethyl",C8H18,,50660,,53700,,,,,,,47,403,,,11.71,C,11,
194,Polystyrene,Homopolymer,"Pentane, 2,2,4-trimethyl",C8H18,,50660,,53700,,,,,,,47,418,,,10.92,C,11,
194,Polystyrene,Homopolymer,"Pentane, 2,2,4-trimethyl",C8H18,,50660,,53700,,,,,,,47,423,,,10.95,C,11,
194,Polystyrene,Homopolymer,"Pentane, 2,2,4-trimethyl",C8H18,,50660,,53700,,,,,,,47,433,,,10.52,C,11,
194,Polystyrene,Homopolymer,"Pentane, 2,2,4-trimethyl",C8H18,,50660,,53700,,,,,,,47,443,,,10.41,C,11,
194,Polystyrene,Homopolymer,"Pentane, 2,2,4-trimethyl",C8H18,,50660,,53700,,,,,,,47,448,,,10.29,C,11,
194,Polystyrene,Homopolymer,"Pentane, 2,2,4-trimethyl",C8H18,,50660,,53700,,,,,,,47,463,,,9.95,C,11,
194,Polystyrene,Homopolymer,1-Octanol,C8H18O,,20000,,,,,,,,351,,435.5,,,17.35,C,56,
194,Polystyrene,Homopolymer,1-Octanol,C8H18O,,20000,,,,,,,,351,,445,,,14.48,C,56,
195,Polystyrene,Homopolymer,1-Octanol,C8H18O,,20000,,,,,,,,351,,492.9,,,9.46,C,56,
195,Polystyrene,Homopolymer,1-Octanol,C8H18O,,20000,,,,,,,,351,,502.6,,,8.25,C,56,
195,Polystyrene,Homopolymer,"Benzene, propyl",C9H12,,3524,,3876,,3600,,,,,,400,,,4.28,U,21,4.4
195,Polystyrene,Homopolymer,"Benzene, propyl",C9H12,,3524,,3876,,3600,,,,,,421.6,,,4.2,U,21,4.38
195,Polystyrene,Homopolymer,"Benzene, propyl",C9H12,,3524,,3876,,3600,,,,,,444.8,,,4.12,U,21,4.38
195,Polystyrene,Homopolymer,"Benzene, propyl",C9H12,,50660,,53700,,,,,,,47,413,,,5.15,C,11,
195,Polystyrene,Homopolymer,"Benzene, propyl",C9H12,,50660,,53700,,,,,,,47,423,,,5.13,C,11,
195,Polystyrene,Homopolymer,"Benzene, propyl",C9H12,,50660,,53700,,,,,,,47,433,,,5.13,C,11,
195,Polystyrene,Homopolymer,"Benzene, propyl",C9H12,,50660,,53700,,,,,,,47,443,,,5.15,C,11,
195,Polystyrene,Homopolymer,"Benzene, propyl",C9H12,,50660,,53700,,,,,,,47,453,,,5.15,C,11,
195,Polystyrene,Homopolymer,"Benzene, propyl",C9H12,,50660,,53700,,,,,,,47,463,,,5.15,C,11,
195,Polystyrene,Homopolymer,"Benzene, propyl",C9H12,,96200,,97600,,98200,,,,,40,396.5,,,4.98,U,21,5.1
195,Polystyrene,Homopolymer,"Benzene, propyl",C9H12,,96200,,97600,,98200,,,,,40,420,,,4.85,U,21,5.05
195,Polystyrene,Homopolymer,"Benzene, propyl",C9H12,,96200,,97600,,98200,,,,,40,447.5,,,4.76,U,21,5.08
195,Polystyrene,Homopolymer,"Benzene, propyl",C9H12,,1780000,,2145000,,1890000,,,,,41,395.5,,,6.49,U,21,6.65
195,Polystyrene,Homopolymer,"Benzene, propyl",C9H12,,1780000,,2145000,,1890000,,,,,41,420.9,,,5.47,U,21,5.7
195,Polystyrene,Homopolymer,"Benzene, propyl",C9H12,,1780000,,2145000,,1890000,,,,,41,445.9,,,4.83,U,21,5.14
195,Polystyrene,Homopolymer,Nonane,C9H20,,50660,,53700,,,,,,,47,403,,,9.94,C,11,
195,Polystyrene,Homopolymer,Nonane,C9H20,,50660,,53700,,,,,,,47,418,,,9.58,C,11,
195,Polystyrene,Homopolymer,Nonane,C9H20,,50660,,53700,,,,,,,47,423,,,9.5,C,11,
195,Polystyrene,Homopolymer,Nonane,C9H20,,50660,,53700,,,,,,,47,433,,,9.32,C,11,
195,Polystyrene,Homopolymer,Nonane,C9H20,,50660,,53700,,,,,,,47,443,,,8.94,C,11,
195,Polystyrene,Homopolymer,Nonane,C9H20,,50660,,53700,,,,,,,47,448,,,8.89,C,11,
195,Polystyrene,Homopolymer,Nonane,C9H20,,50660,,53700,,,,,,,47,463,,,8.61,C,11,
196,Polystyrene,Homopolymer,Naphthalene,C10H8,,,,120000,,,,,,,,456.2,,,3.38,C,4,
196,Polystyrene,Homopolymer,Naphthalene,C10H8,,,,120000,,,,,,,,466.2,,,3.4,C,4,
196,Polystyrene,Homopolymer,Naphthalene,C10H8,,,,120000,,,,,,,,476.2,,,3.34,C,4,
196,Polystyrene,Homopolymer,Tetralin,C10H12,,,,120000,,,,,,,,456.2,,,3.83,C,4,
196,Polystyrene,Homopolymer,Tetralin,C10H12,,,,120000,,,,,,,,466.2,,,3.8,C,4,
196,Polystyrene,Homopolymer,Tetralin,C10H12,,,,120000,,,,,,,,476.2,,,3.79,C,4,
196,Polystyrene,Homopolymer,"Benzene, butyl",C10H14,,50660,,53700,,,,,,,47,413,,,5.3,C,11,
196,Polystyrene,Homopolymer,"Benzene, butyl",C10H14,,50660,,53700,,,,,,,47,423,,,5.28,C,11,
196,Polystyrene,Homopolymer,"Benzene, butyl",C10H14,,50660,,53700,,,,,,,47,433,,,5.25,C,11,
196,Polystyrene,Homopolymer,"Benzene, butyl",C10H14,,50660,,53700,,,,,,,47,443,,,5.24,C,11,
196,Polystyrene,Homopolymer,"Benzene, butyl",C10H14,,50660,,53700,,,,,,,47,453,,,5.23,C,11,
196,Polystyrene,Homopolymer,"Benzene, butyl",C10H14,,50660,,53700,,,,,,,47,463,,,5.16,C,11,
196,Polystyrene,Homopolymer,"Benzene, butyl",C10H14,,,,120000,,,,,,,,456.2,,,5.29,C,4,
196,Polystyrene,Homopolymer,"Benzene, butyl",C10H14,,,,120000,,,,,,,,466.2,,,5.29,C,4,
196,Polystyrene,Homopolymer,"Benzene, butyl",C10H14,,,,120000,,,,,,,,476.2,,,5.19,C,4,
196,Polystyrene,Homopolymer,Decalin (cis),C10H18,,,,120000,,,,,,,,456.2,,,5.47,C,4,
196,Polystyrene,Homopolymer,Decalin (cis),C10H18,,,,120000,,,,,,,,466.2,,,5.32,C,4,
196,Polystyrene,Homopolymer,Decalin (cis),C10H18,,,,120000,,,,,,,,476.2,,,5.23,C,4,
196,Polystyrene,Homopolymer,Decalin (trans),C10H18,,,,120000,,,,,,,,456.2,,,5.94,C,4,
196,Polystyrene,Homopolymer,Decalin (trans),C10H18,,,,120000,,,,,,,,466.2,,,5.76,C,4,
196,Polystyrene,Homopolymer,Decalin (trans),C10H18,,,,120000,,,,,,,,476.2,,,5.61,C,4,
197,Polystyrene,Homopolymer,"Cyclohexane, butyl",C10H20,,,,120000,,,,,,,,433.2,,,8.36,C,4,
197,Polystyrene,Homopolymer,"Cyclohexane, butyl",C10H20,,,,120000,,,,,,,,443.2,,,8.15,C,4,
197,Polystyrene,Homopolymer,"Cyclohexane, butyl",C10H20,,,,120000,,,,,,,,453.2,,,7.9,C,4,
197,Polystyrene,Homopolymer,Decane,C10H22,,1709,,1811,,,,,,,,413.2,,0.933,,C,19,
197,Polystyrene,Homopolymer,Decane,C10H22,,76000,,82000,,,,,,368.45,42,413.2,25.57,,,,86,16.7
197,Polystyrene,Homopolymer,Decane,C10H22,,76000,,82000,,,,,,368.45,42,423.2,20.76,,,,86,15.2
197,Polystyrene,Homopolymer,Decane,C10H22,,76000,,82000,,,,,,368.45,42,433.2,17.02,,,,86,14.1
197,Polystyrene,Homopolymer,Decane,C10H22,,76000,,82000,,,,,,368.45,42,453.2,11.75,,,,86,12.2
197,Polystyrene,Homopolymer,Decane,C10H22,,76000,,82000,,,,,,368.45,42,473.2,8.36,,,,86,10.9
197,Polystyrene,Homopolymer,Decane,C10H22,,77000,,78000,,,,,,368.65,48,423.2,24.2,,,,86,13.1
197,Polystyrene,Homopolymer,Decane,C10H22,,,,120000,,,,,,,,456.2,,,12.23,C,4,
197,Polystyrene,Homopolymer,Decane,C10H22,,,,120000,,,,,,,,466.2,,,12.42,C,4,
197,Polystyrene,Homopolymer,Decane,C10H22,,,,120000,,,,,,,,476.2,,,11.62,C,4,
197,Polystyrene,Homopolymer,Decane,C10H22,,162000,,270000,,,,,,371.35,50,423.2,23.74,,,,86,13.3
197,Polystyrene,Homopolymer,Decane,C10H22,,300000,,550000,,,,,,,51,423.2,22.95,,,,86,13.8
197,Polystyrene,Homopolymer,Decane,C10H22,,420000,,450000,,,,,,372.15,52,423.2,24.21,,,,86,13.1
197,Polystyrene,Homopolymer,Decane,C10H22,,,,560000,,,,,,370.25,53,423.2,25.93,,,,86,12.2
197,Polystyrene,Homopolymer,"Heptane, 3,4,5-trimethyl",C10H22,,1709,,1811,,,,,,,,413.2,,0.878,,C,19,
197,Polystyrene,Homopolymer,"Hexane, 3,3,4,4-tetramethyl",C10H22,,,,120000,,,,,,,,433.2,,,9.9,C,4,
197,Polystyrene,Homopolymer,"Hexane, 3,3,4,4-tetramethyl",C10H22,,,,120000,,,,,,,,443.2,,,9.16,C,4,
197,Polystyrene,Homopolymer,"Hexane, 3,3,4,4-tetramethyl",C10H22,,,,120000,,,,,,,,453.2,,,8.71,C,4,
198,Polystyrene,Homopolymer,"Benzene, pentyl",C11H16,,50660,,53700,,,,,,,47,413,,,5.5,C,11,
198,Polystyrene,Homopolymer,"Benzene, pentyl",C11H16,,50660,,53700,,,,,,,47,423,,,5.48,C,11,
198,Polystyrene,Homopolymer,"Benzene, pentyl",C11H16,,50660,,53700,,,,,,,47,433,,,5.41,C,11,
198,Polystyrene,Homopolymer,"Benzene, pentyl",C11H16,,50660,,53700,,,,,,,47,443,,,5.35,C,11,
198,Polystyrene,Homopolymer,"Benzene, pentyl",C11H16,,50660,,53700,,,,,,,47,453,,,5.33,C,11,
198,Polystyrene,Homopolymer,"Benzene, pentyl",C11H16,,50660,,53700,,,,,,,47,463,,,5.3,C,11,
198,Polystyrene,Homopolymer,"Benzene, pentyl",C11H16,,61500,,103935,,,,,,,,433.2,76.9,,,,75,6.84
198,Polystyrene,Homopolymer,"Benzene, hexyl",C12H18,,50660,,53700,,,,,,,47,413,,,5.83,C,11,
198,Polystyrene,Homopolymer,"Benzene, hexyl",C12H18,,50660,,53700,,,,,,,47,423,,,5.74,C,11,
198,Polystyrene,Homopolymer,"Benzene, hexyl",C12H18,,50660,,53700,,,,,,,47,433,,,5.69,C,11,
198,Polystyrene,Homopolymer,"Benzene, hexyl",C12H18,,50660,,53700,,,,,,,47,443,,,5.67,C,11,
198,Polystyrene,Homopolymer,"Benzene, hexyl",C12H18,,50660,,53700,,,,,,,47,453,,,5.56,C,11,
198,Polystyrene,Homopolymer,"Benzene, hexyl",C12H18,,50660,,53700,,,,,,,47,463,,,5.5,C,11,
198,Polystyrene,Homopolymer,Dodecane,C12H26,,,,120000,,,,,,,,456.2,,,12.59,C,4,
198,Polystyrene,Homopolymer,Dodecane,C12H26,,,,120000,,,,,,,,466.2,,,12.31,C,4,
198,Polystyrene,Homopolymer,Dodecane,C12H26,,,,120000,,,,,,,,476.2,,,11.79,C,4,
198,Polystyrene,Homopolymer,Tetradecane,C14H30,,61500,,103935,,,,,,,,433.2,106.6,,,,75,16.2
198,Polystyrene,Homopolymer,Tetradecane,C14H30,,,,120000,,,,,,,,456.2,,,12.93,C,4,
198,Polystyrene,Homopolymer,Tetradecane,C14H30,,,,120000,,,,,,,,466.2,,,12.65,C,4,
198,Polystyrene,Homopolymer,Tetradecane,C14H30,,,,120000,,,,,,,,476.2,,,12.27,C,4,
199,Polystyrene,Homopolymer,Hexadecane,C16H34,,,,120000,,,,,,,,441,237.08,,,,3,14.2
199,Polystyrene,Homopolymer,Hexadecane,C16H34,,,,120000,,,,,,,,446,197.32,,,,3,14
199,Polystyrene,Homopolymer,Hexadecane,C16H34,,,,120000,,,,,,,,451.1,165.89,,,,3,13.8
199,Polystyrene,Homopolymer,Hexadecane,C16H34,,,,120000,,,,,,,,456.1,139.54,,,,3,13.6
199,Polystyrene,Homopolymer,Hexadecane,C16H34,,,,120000,,,,,,,,456.2,,,14.05,C,4,
199,Polystyrene,Homopolymer,Hexadecane,C16H34,,,,120000,,,,,,,,461.1,119.42,,,,3,13.3
199,Polystyrene,Homopolymer,Hexadecane,C16H34,,,,120000,,,,,,,,466.1,100.45,,,,3,13.2
199,Polystyrene,Homopolymer,Hexadecane,C16H34,,,,120000,,,,,,,,466.2,,,13.18,C,4,
199,Polystyrene,Homopolymer,Hexadecane,C16H34,,,,120000,,,,,,,,471.2,86.28,,,,3,13
199,Polystyrene,Homopolymer,Hexadecane,C16H34,,,,120000,,,,,,,,476.2,,,12.72,C,4,
199,Polystyrene,Homopolymer,Hexadecane,C16H34,,,,120000,,,,,,,,476.2,74.2,,,,3,12.8
199,Polystyrene,Homopolymer,Hexadecane,C16H34,,,,120000,,,,,,,,481.1,64.77,,,,3,12.5
199,Polystyrene,Homopolymer,Hexadecane,C16H34,,,,120000,,,,,,,,486.3,55.37,,,,3,12.5
199,Polystyrene,Homopolymer,Hexadecane,C16H34,,,,120000,,,,,,,,491.4,48.28,,,,3,12.3
199,Polystyrene,Homopolymer,Water,H2O,,20000,,,,,,,,351,,435.5,,,250.98,C,56,
199,Polystyrene,Homopolymer,Water,H2O,,20000,,,,,,,,351,,445,,,180.19,C,56,
199,Polystyrene,Homopolymer,Water,H2O,,20000,,,,,,,,351,,492.9,,,76.84,C,56,
199,Polystyrene,Homopolymer,Water,H2O,,20000,,,,,,,,351,,502.6,,,76.58,C,56,
201,Polysulfone,Homopolymer,"Methane, tetrachloro",CCl4,a,400000,,,,,,,,,,523.2,,,4.98,C,5,
201,Polysulfone,Homopolymer,"Methane, tetrachloro",CCl4,a,400000,,,,,,,,,,573.2,,,4.4,C,5,
201,Polysulfone,Homopolymer,"Methane, tetrachloro",CCl4,,,,,,,,,,,,423.2,1.419,,,,33,20
201,Polysulfone,Homopolymer,"Methane, tetrachloro",CCl4,,,,,,,,,,,,443.2,1.102,,,,33,18.5
201,Polysulfone,Homopolymer,"Methane, trichloro",CHCl3,a,400000,,,,,,,,,,523.2,,,4.65,C,5,
201,Polysulfone,Homopolymer,"Methane, trichloro",CHCl3,a,400000,,,,,,,,,,573.2,,,4.29,C,5,
201,Polysulfone,Homopolymer,"Methane, trichloro",CHCl3,,,,,,,,,,,,423.2,3.3863,,,,33,7.09
201,Polysulfone,Homopolymer,"Methane, trichloro",CHCl3,,,,,,,,,,,,443.2,2.2508,,,,33,7.72
201,Polysulfone,Homopolymer,"Methane, dichloro",CH2Cl2,a,400000,,,,,,,,,,523.2,,,3.54,C,5,
201,Polysulfone,Homopolymer,"Methane, dichloro",CH2Cl2,a,400000,,,,,,,,,,573.2,,,3.45,C,5,
201,Polysulfone,Homopolymer,"Methane, dichloro",CH2Cl2,,,,,,,,,,,,423.2,3.714,,,,33,5.34
201,Polysulfone,Homopolymer,"Methane, dichloro",CH2Cl2,,,,,,,,,,,,443.2,2.2819,,,,33,6.47
201,Polysulfone,Homopolymer,Methanol,CH4O,a,400000,,,,,,,,,,523.2,,,10.7,C,5,
201,Polysulfone,Homopolymer,Methanol,CH4O,a,400000,,,,,,,,,,573.2,,,8.48,C,5,
201,Polysulfone,Homopolymer,Methanol,CH4O,,,,,,,,,,,,423.2,2.5973,,,,33,22.8
201,Polysulfone,Homopolymer,Methanol,CH4O,,,,,,,,,,,,443.2,1.5177,,,,33,25.9
201,Polysulfone,Homopolymer,"Ethanol, 2,2,2-trifluoro",C2H3F3O,,,,,,,,,,,,423.2,1.2687,,,,33,
201,Polysulfone,Homopolymer,"Ethanol, 2,2,2-trifluoro",C2H3F3O,,,,,,,,,,,,443.2,1.1716,,,,33,
201,Polysulfone,Homopolymer,"Acetic acid, nitrile",C2H3N,a,400000,,,,,,,,,,523.2,,,11.3,C,5,
202,Polysulfone,Homopolymer,"Acetic acid, nitrile",C2H3N,a,400000,,,,,,,,,,573.2,,,8.54,C,5,
202,Polysulfone,Homopolymer,"Acetic acid, nitrile",C2H3N,,,,,,,,,,,,423.2,6.5457,,,,33,17.5
202,Polysulfone,Homopolymer,"Acetic acid, nitrile",C2H3N,,,,,,,,,,,,443.2,3.7229,,,,33,21.4
202,Polysulfone,Homopolymer,"Ethane, 1,2-dichloro",C2H4Cl2,,,,,,,,,,,,423.2,6.3062,,,,33,7.14
202,Polysulfone,Homopolymer,"Ethane, 1,2-dichloro",C2H4Cl2,,,,,,,,,,,,443.2,3.9068,,,,33,7.9
202,Polysulfone,Homopolymer,Acetaldehyde,C2H4O,,,,,,,,,,,,423.2,2.805,,,,33,9.43
202,Polysulfone,Homopolymer,Acetaldehyde,C2H4O,,,,,,,,,,,,443.2,1.9433,,,,33,10.3
202,Polysulfone,Homopolymer,Ethanol,C2H6O,a,400000,,,,,,,,,,523.2,,,9.29,C,5,
202,Polysulfone,Homopolymer,Ethanol,C2H6O,a,400000,,,,,,,,,,573.2,,,8.42,C,5,
202,Polysulfone,Homopolymer,Ethanol,C2H6O,,,,,,,,,,,,423.2,2.7714,,,,33,20.6
202,Polysulfone,Homopolymer,Ethanol,C2H6O,,,,,,,,,,,,443.2,1.7801,,,,33,20.7
202,Polysulfone,Homopolymer,"Sulfoxide, dimethyl",C2H6OS,a,400000,,,,,,,,,,523.2,,,7.31,C,5,
202,Polysulfone,Homopolymer,"Sulfoxide, dimethyl",C2H6OS,a,400000,,,,,,,,,,573.2,,,6.81,C,5,
202,Polysulfone,Homopolymer,"Propenoic acid, nitrile",C3H3N,,,,,,,,,,,,423.2,6.4731,,,,33,11.9
202,Polysulfone,Homopolymer,"Propenoic acid, nitrile",C3H3N,,,,,,,,,,,,443.2,3.4504,,,,33,15.4
202,Polysulfone,Homopolymer,"Propanoic acid, nitrile",C3H5N,,,,,,,,,,,,423.2,10.2215,,,,33,13.1
202,Polysulfone,Homopolymer,"Propanoic acid, nitrile",C3H5N,,,,,,,,,,,,443.2,4.7202,,,,33,19.6
203,Polysulfone,Homopolymer,Allyl alcohol,C3H6O,,,,,,,,,,,,423.2,5.2344,,,,33,
203,Polysulfone,Homopolymer,Allyl alcohol,C3H6O,,,,,,,,,,,,443.2,2.9611,,,,33,
203,Polysulfone,Homopolymer,2-Propanone,C3H6O,,,,,,,,,,,,423.2,3.0853,,,,33,13.6
203,Polysulfone,Homopolymer,2-Propanone,C3H6O,,,,,,,,,,,,443.2,1.9537,,,,33,15.5
203,Polysulfone,Homopolymer,"Acetic acid, methyl ester",C3H6O2,,,,,,,,,,,,423.2,2.9569,,,,33,11.2
203,Polysulfone,Homopolymer,"Acetic acid, methyl ester",C3H6O2,,,,,,,,,,,,443.2,1.6705,,,,33,14.5
203,Polysulfone,Homopolymer,"Formic acid, ethyl ester",C3H6O2,,,,,,,,,,,,423.2,2.7284,,,,33,11.5
203,Polysulfone,Homopolymer,"Formic acid, ethyl ester",C3H6O2,,,,,,,,,,,,443.2,1.9344,,,,33,11.9
203,Polysulfone,Homopolymer,"Formic acid, amide, N,N-dimethyl",C3H7NO,a,400000,,,,,,,,,,523.2,,,7.66,C,5,
203,Polysulfone,Homopolymer,"Formic acid, amide, N,N-dimethyl",C3H7NO,a,400000,,,,,,,,,,573.2,,,5.76,C,5,
203,Polysulfone,Homopolymer,1-Propanol,C3H8O,,,,,,,,,,,,423.2,3.7957,,,,33,20.4
203,Polysulfone,Homopolymer,1-Propanol,C3H8O,,,,,,,,,,,,443.2,2.3609,,,,33,20.5
203,Polysulfone,Homopolymer,Furane,C4H4O,,,,,,,,,,,,423.2,2.657,,,,33,8.21
203,Polysulfone,Homopolymer,Furane,C4H4O,,,,,,,,,,,,443.2,1.3673,,,,33,12.3
204,Polysulfone,Homopolymer,2-Butanone,C4H8O,a,400000,,,,,,,,,,523.2,,,8.79,C,5,
204,Polysulfone,Homopolymer,2-Butanone,C4H8O,a,400000,,,,,,,,,,573.2,,,8,C,5,
204,Polysulfone,Homopolymer,2-Butanone,C4H8O,,,,,,,,,,,,423.2,3.433,,,,33,17.1
204,Polysulfone,Homopolymer,2-Butanone,C4H8O,,,,,,,,,,,,443.2,2.3713,,,,33,17.4
204,Polysulfone,Homopolymer,"Furane, tetrahydro",C4H8O,,,,,,,,,,,,423.2,3.0494,,,,33,14.1
204,Polysulfone,Homopolymer,"Furane, tetrahydro",C4H8O,,,,,,,,,,,,443.2,2.4368,,,,33,12.6
204,Polysulfone,Homopolymer,"Acetic acid, ethyl ester",C4H8O2,,,,,,,,,,,,423.2,3.01,,,,33,14.7
204,Polysulfone,Homopolymer,"Acetic acid, ethyl ester",C4H8O2,,,,,,,,,,,,443.2,1.8576,,,,33,16.7
204,Polysulfone,Homopolymer,"1,4-Dioxane",C4H8O2,,,,,,,,,,,,423.2,4.0673,,,,33,19.4
204,Polysulfone,Homopolymer,"1,4-Dioxane",C4H8O2,,,,,,,,,,,,443.2,3.6676,,,,33,14.4
204,Polysulfone,Homopolymer,"Sulfone, tetramethylene",C4H8O2S,a,400000,,,,,,,,,,523.2,,,5.34,C,5,
204,Polysulfone,Homopolymer,"Sulfone, tetramethylene",C4H8O2S,a,400000,,,,,,,,,,573.2,,,4.76,C,5,
204,Polysulfone,Homopolymer,"Butane, 1-chloro",C4H9Cl,,,,,,,,,,,,423.2,2.6338,,,,33,17.6
204,Polysulfone,Homopolymer,"Butane, 1-chloro",C4H9Cl,,,,,,,,,,,,443.2,0.8655,,,,33,37.7
204,Polysulfone,Homopolymer,"Acetic acid, amide, N,N-dimethyl",C4H9NO,a,400000,,,,,,,,,,523.2,,,6.34,C,5,
204,Polysulfone,Homopolymer,"Acetic acid, amide, N,N-dimethyl",C4H9NO,a,400000,,,,,,,,,,573.2,,,4.57,C,5,
205,Polysulfone,Homopolymer,1-Butanol,C4H10O,,,,,,,,,,,,423.2,4.0488,,,,33,28.7
205,Polysulfone,Homopolymer,1-Butanol,C4H10O,,,,,,,,,,,,443.2,2.8668,,,,33,24.3
205,Polysulfone,Homopolymer,"Ether, diethyl",C4H10O,,,,,,,,,,,,423.2,1.1288,,,,33,20.7
205,Polysulfone,Homopolymer,Pyridine,C5H5N,a,400000,,,,,,,,,,523.2,,,5.08,C,5,
205,Polysulfone,Homopolymer,Pyridine,C5H5N,a,400000,,,,,,,,,,573.2,,,4.11,C,5,
205,Polysulfone,Homopolymer,"2-Pyrrolidone, 1-methyl",C5H9NO,a,400000,,,,,,,,,,523.2,,,5.09,C,5,
205,Polysulfone,Homopolymer,"2-Pyrrolidone, 1-methyl",C5H9NO,a,400000,,,,,,,,,,573.2,,,3.9,C,5,
205,Polysulfone,Homopolymer,3-Pentanone,C5H10O,,,,,,,,,,,,423.2,5.2607,,,,33,15.6
205,Polysulfone,Homopolymer,3-Pentanone,C5H10O,,,,,,,,,,,,443.2,2.8951,,,,33,18.9
205,Polysulfone,Homopolymer,Pentane,C5H12,,,,,,,,,,,,423.2,0.4432,,,,33,60.4
205,Polysulfone,Homopolymer,Pentane,C5H12,,,,,,,,,,,,443.2,0.3543,,,,33,58.5
205,Polysulfone,Homopolymer,"Benzene, chloro",C6H5Cl,a,400000,,,,,,,,,,523.2,,,4.61,C,5,
205,Polysulfone,Homopolymer,"Benzene, chloro",C6H5Cl,a,400000,,,,,,,,,,573.2,,,4.37,C,5,
205,Polysulfone,Homopolymer,"Benzene, fluoro",C6H5F,a,400000,,,,,,,,,,523.2,,,6.06,C,5,
205,Polysulfone,Homopolymer,"Benzene, fluoro",C6H5F,a,400000,,,,,,,,,,573.2,,,5.22,C,5,
206,Polysulfone,Homopolymer,"Benzene, fluoro",C6H5F,,,,,,,,,,,,423.2,4.3425,,,,33,11.7
206,Polysulfone,Homopolymer,"Benzene, fluoro",C6H5F,,,,,,,,,,,,443.2,3.5352,,,,33,10
206,Polysulfone,Homopolymer,Benzene,C6H6,,,,,,,,,,,,423.2,4.327,,,,33,13
206,Polysulfone,Homopolymer,Benzene,C6H6,,,,,,,,,,,,443.2,3.0748,,,,33,12.9
206,Polysulfone,Homopolymer,Phenol,C6H6O,a,400000,,,,,,,,,,523.2,,,3.24,C,5,
206,Polysulfone,Homopolymer,Phenol,C6H6O,a,400000,,,,,,,,,,573.2,,,3.07,C,5,