Page,Solute,Solute_type,Solvent,Solvent_formula,MN_symbol,MN,MW_symbol,MW,MV_symbol,MV,per composition,per substitution,Tg_symbol,Tg (K),Note,T (K),Vg (cm3/g),chi_inf,omega_inf,U/C,Ref,calc_omega_inf
263,Poly(vinyl isobutyl ether),Homopolymer,"Methane, dichloro",CH2Cl2,,2340,,,,8600,,,,,60,363.2,,0.261,,C,76,
263,Poly(vinyl isobutyl ether),Homopolymer,"Methane, dichloro",CH2Cl2,,2500,,,,12400,,,,,61,323.2,,0.241,,C,76,
263,Poly(vinyl isobutyl ether),Homopolymer,"Methane, dichloro",CH2Cl2,,2500,,,,12400,,,,,61,343.2,,0.287,,C,76,
263,Poly(vinyl isobutyl ether),Homopolymer,"Methane, dichloro",CH2Cl2,,2500,,,,12400,,,,,61,363.2,,0.301,,C,76,
263,Poly(vinyl isobutyl ether),Homopolymer,"Ethene, trichloro",C2HCl3,,2340,,,,8600,,,,,60,303.2,,0.061,,C,76,
263,Poly(vinyl isobutyl ether),Homopolymer,"Ethene, trichloro",C2HCl3,,2340,,,,8600,,,,,60,323.2,,0.102,,C,76,
264,Poly(vinyl isobutyl ether),Homopolymer,"Ethene, trichloro",C2HCl3,,2340,,,,8600,,,,,60,343.2,,0.16,,C,76,
264,Poly(vinyl isobutyl ether),Homopolymer,"Ethene, trichloro",C2HCl3,,2340,,,,8600,,,,,60,363.2,,0.217,,C,76,
264,Poly(vinyl isobutyl ether),Homopolymer,"Ethene, trichloro",C2HCl3,,2500,,,,12400,,,,,61,323.2,,0.084,,C,76,
264,Poly(vinyl isobutyl ether),Homopolymer,"Ethene, trichloro",C2HCl3,,2500,,,,12400,,,,,61,343.2,,0.171,,C,76,
264,Poly(vinyl isobutyl ether),Homopolymer,"Ethene, trichloro",C2HCl3,,2500,,,,12400,,,,,61,363.2,,0.245,,C,76,
264,Poly(vinyl isobutyl ether),Homopolymer,Pentane,C5H12,,2340,,,,8600,,,,,60,303.2,,0.694,,C,76,
264,Poly(vinyl isobutyl ether),Homopolymer,Pentane,C5H12,,2340,,,,8600,,,,,60,323.2,,0.594,,C,76,
264,Poly(vinyl isobutyl ether),Homopolymer,Pentane,C5H12,,2340,,,,8600,,,,,60,343.2,,0.551,,C,76,
264,Poly(vinyl isobutyl ether),Homopolymer,Pentane,C5H12,,2340,,,,8600,,,,,60,363.2,,0.531,,C,76,
264,Poly(vinyl isobutyl ether),Homopolymer,Pentane,C5H12,,2500,,,,12400,,,,,61,323.3,,0.573,,C,76,
264,Poly(vinyl isobutyl ether),Homopolymer,Pentane,C5H12,,2500,,,,12400,,,,,61,343.2,,0.594,,C,76,
264,Poly(vinyl isobutyl ether),Homopolymer,Pentane,C5H12,,2500,,,,12400,,,,,61,363.2,,0.565,,C,76,
264,Poly(vinyl isobutyl ether),Homopolymer,Benzene,C6H6,,2340,,,,8600,,,,,60,303.2,,0.313,,C,76,
264,Poly(vinyl isobutyl ether),Homopolymer,Benzene,C6H6,,2340,,,,8600,,,,,60,323.2,,0.284,,C,76,
264,Poly(vinyl isobutyl ether),Homopolymer,Benzene,C6H6,,2340,,,,8600,,,,,60,343.2,,0.296,,C,76,
264,Poly(vinyl isobutyl ether),Homopolymer,Benzene,C6H6,,2340,,,,8600,,,,,60,363.2,,0.322,,C,76,
264,Poly(vinyl isobutyl ether),Homopolymer,Benzene,C6H6,,2500,,,,12400,,,,,61,323.2,,0.292,,C,76,
264,Poly(vinyl isobutyl ether),Homopolymer,Benzene,C6H6,,2500,,,,12400,,,,,61,343.2,,0.317,,C,76,
264,Poly(vinyl isobutyl ether),Homopolymer,Benzene,C6H6,,2500,,,,12400,,,,,61,363.2,,0.32,,C,76,
264,Poly(vinyl isobutyl ether),Homopolymer,Cyclohexane,C6H12,,2340,,,,8600,,,,,60,303.2,,0.454,,C,76,
264,Poly(vinyl isobutyl ether),Homopolymer,Cyclohexane,C6H12,,2340,,,,8600,,,,,60,323.2,,0.404,,C,76,
264,Poly(vinyl isobutyl ether),Homopolymer,Cyclohexane,C6H12,,2340,,,,8600,,,,,60,343.2,,0.358,,C,76,
264,Poly(vinyl isobutyl ether),Homopolymer,Cyclohexane,C6H12,,2340,,,,8600,,,,,60,363.2,,0.362,,C,76,
265,Poly(vinyl isobutyl ether),Homopolymer,Cyclohexane,C6H12,,2500,,,,12400,,,,,61,323.2,,0.417,,C,76,
265,Poly(vinyl isobutyl ether),Homopolymer,Cyclohexane,C6H12,,2500,,,,12400,,,,,61,343.2,,0.407,,C,76,
265,Poly(vinyl isobutyl ether),Homopolymer,Cyclohexane,C6H12,,2500,,,,12400,,,,,61,363.2,,0.362,,C,76,
265,Poly(vinyl isobutyl ether),Homopolymer,Hexane,C6H14,,2340,,,,8600,,,,,60,303.2,,0.654,,C,76,
265,Poly(vinyl isobutyl ether),Homopolymer,Hexane,C6H14,,2340,,,,8600,,,,,60,323.2,,0.591,,C,76,
265,Poly(vinyl isobutyl ether),Homopolymer,Hexane,C6H14,,2340,,,,8600,,,,,60,343.2,,0.526,,C,76,
265,Poly(vinyl isobutyl ether),Homopolymer,Hexane,C6H14,,2340,,,,8600,,,,,60,363.2,,0.531,,C,76,
265,Poly(vinyl isobutyl ether),Homopolymer,Hexane,C6H14,,2500,,,,12400,,,,,61,323.2,,0.61,,C,76,
265,Poly(vinyl isobutyl ether),Homopolymer,Hexane,C6H14,,2500,,,,12400,,,,,61,343.2,,0.594,,C,76,
265,Poly(vinyl isobutyl ether),Homopolymer,Hexane,C6H14,,2500,,,,12400,,,,,61,363.2,,0.544,,C,76,
265,Poly(vinyl isobutyl ether),Homopolymer,Toluene,C7H8,,2340,,,,8600,,,,,60,303.2,,0.299,,C,76,
265,Poly(vinyl isobutyl ether),Homopolymer,Toluene,C7H8,,2340,,,,8600,,,,,60,323.2,,0.233,,C,76,
265,Poly(vinyl isobutyl ether),Homopolymer,Toluene,C7H8,,2340,,,,8600,,,,,60,343.2,,0.282,,C,76,
265,Poly(vinyl isobutyl ether),Homopolymer,Toluene,C7H8,,2340,,,,8600,,,,,60,363.2,,0.307,,C,76,
265,Poly(vinyl isobutyl ether),Homopolymer,Toluene,C7H8,,2500,,,,12400,,,,,61,323.2,,0.231,,C,76,
265,Poly(vinyl isobutyl ether),Homopolymer,Toluene,C7H8,,2500,,,,12400,,,,,61,343.2,,0.289,,C,76,
265,Poly(vinyl isobutyl ether),Homopolymer,Toluene,C7H8,,2500,,,,12400,,,,,61,363.2,,0.285,,C,76,
265,Poly(vinyl isobutyl ether),Homopolymer,Heptane,C7H16,,2340,,,,8600,,,,,60,303.2,,0.677,,C,76,
265,Poly(vinyl isobutyl ether),Homopolymer,Heptane,C7H16,,2340,,,,8600,,,,,60,323.2,,0.598,,C,76,
265,Poly(vinyl isobutyl ether),Homopolymer,Heptane,C7H16,,2340,,,,8600,,,,,60,343.2,,0.536,,C,76,
265,Poly(vinyl isobutyl ether),Homopolymer,Heptane,C7H16,,2340,,,,8600,,,,,60,363.2,,0.524,,C,76,
265,Poly(vinyl isobutyl ether),Homopolymer,Heptane,C7H16,,2500,,,,12400,,,,,61,323.2,,0.488,,C,76,
265,Poly(vinyl isobutyl ether),Homopolymer,Heptane,C7H16,,2500,,,,12400,,,,,61,343.2,,0.552,,C,76,
266,Poly(vinyl isobutyl ether),Homopolymer,Heptane,C7H16,,2500,,,,12400,,,,,61,363.2,,0.52,,C,76,
266,Poly(vinyl isobutyl ether),Homopolymer,"Benzene, 1,2-dimethyl",C8H10,,2340,,,,8600,,,,,60,363.2,301.93,,,,76,3.87
266,Poly(vinyl isobutyl ether),Homopolymer,"Benzene, 1,2-dimethyl",C8H10,,2500,,,,12400,,,,,61,343.2,,0.31,,C,76,
266,Poly(vinyl isobutyl ether),Homopolymer,"Benzene, 1,2-dimethyl",C8H10,,2500,,,,12400,,,,,61,363.2,304.59,,,,76,3.84
266,Poly(vinyl isobutyl ether),Homopolymer,"Benzene, 1,4-dimethyl",C8H10,,2340,,,,8600,,,,,60,363.2,241.08,,,,76,4
266,Poly(vinyl isobutyl ether),Homopolymer,"Benzene, 1,4-dimethyl",C8H10,,2500,,,,12400,,,,,61,343.2,,0.299,,C,76,
266,Poly(vinyl isobutyl ether),Homopolymer,"Benzene, 1,4-dimethyl",C8H10,,2500,,,,12400,,,,,61,363.2,243.56,,,,76,3.96
266,Poly(vinyl isobutyl ether),Homopolymer,"Heptane, 2-methyl",C8H18,,2340,,,,8600,,,,,60,303.2,,0.654,,C,76,
266,Poly(vinyl isobutyl ether),Homopolymer,"Heptane, 2-methyl",C8H18,,2340,,,,8600,,,,,60,323.2,,0.57,,C,76,
266,Poly(vinyl isobutyl ether),Homopolymer,"Heptane, 2-methyl",C8H18,,2340,,,,8600,,,,,60,343.2,,0.523,,C,76,
266,Poly(vinyl isobutyl ether),Homopolymer,"Heptane, 2-methyl",C8H18,,2340,,,,8600,,,,,60,363.2,,0.497,,C,76,
266,Poly(vinyl isobutyl ether),Homopolymer,"Heptane, 2-methyl",C8H18,,2500,,,,12400,,,,,61,323.2,,0.538,,C,76,
266,Poly(vinyl isobutyl ether),Homopolymer,"Heptane, 2-methyl",C8H18,,2500,,,,12400,,,,,61,343.2,,0.595,,C,76,
266,Poly(vinyl isobutyl ether),Homopolymer,"Heptane, 2-methyl",C8H18,,2500,,,,12400,,,,,61,363.2,,0.489,,C,76,
266,Poly(vinyl isobutyl ether),Homopolymer,Octane,C8H18,,2340,,,,8600,,,,,60,303.2,,0.684,,C,76,
266,Poly(vinyl isobutyl ether),Homopolymer,Octane,C8H18,,2340,,,,8600,,,,,60,323.2,,0.602,,C,76,
266,Poly(vinyl isobutyl ether),Homopolymer,Octane,C8H18,,2340,,,,8600,,,,,60,343.2,,0.586,,C,76,
266,Poly(vinyl isobutyl ether),Homopolymer,Octane,C8H18,,2340,,,,8600,,,,,60,363.2,,0.555,,C,76,
266,Poly(vinyl isobutyl ether),Homopolymer,Octane,C8H18,,2500,,,,12400,,,,,61,323.2,,0.529,,C,76,
266,Poly(vinyl isobutyl ether),Homopolymer,Octane,C8H18,,2500,,,,12400,,,,,61,343.2,,0.548,,C,76,
266,Poly(vinyl isobutyl ether),Homopolymer,Octane,C8H18,,2500,,,,12400,,,,,61,363.2,,0.52,,C,76,
267,Poly(vinyl isobutyl ether),Homopolymer,Nonane,C9H20,,2340,,,,8600,,,,,60,363.2,205.03,,,,76,6.12
267,Poly(vinyl isobutyl ether),Homopolymer,Nonane,C9H20,,2500,,,,12400,,,,,61,363.2,211.26,,,,76,5.94
267,Poly(vinyl isobutyl ether),Homopolymer,Decane,C10H22,,2340,,,,8600,,,,,60,363.2,425.89,,,,76,6.1
267,Poly(vinyl isobutyl ether),Homopolymer,Decane,C10H22,,2500,,,,12400,,,,,61,363.2,433.63,,,,76,5.99
268,Poly(vinyl methyl ether),Homopolymer,"Methane, tetrachloro",CCl4,,,,,,10000,,,,,,313.2,,0.06,,C,31,
268,Poly(vinyl methyl ether),Homopolymer,"Methane, trichloro",CHCl3,,,,,,10000,,,,,,313.2,,-0.92,,C,31,
268,Poly(vinyl methyl ether),Homopolymer,"Methane, dichloro",CH2Cl2,,,,,,10000,,,,,,313.2,,-0.39,,C,31,
268,Poly(vinyl methyl ether),Homopolymer,"Ethene, tetrachloro",C2Cl4,,,,,,10000,,,,,,313.2,,0.34,,C,31,
268,Poly(vinyl methyl ether),Homopolymer,"Ethene, trichloro",C2HCl3,,,,,,10000,,,,,,313.2,,-0.26,,C,31,
268,Poly(vinyl methyl ether),Homopolymer,2-Propanone,C3H6O,,37030,,68500,,,,,,,,423,,,6.96,C,38,
268,Poly(vinyl methyl ether),Homopolymer,2-Propanone,C3H6O,,,,,,10000,,,,,,313.2,,0.75,,C,31,
268,Poly(vinyl methyl ether),Homopolymer,2-Propanol,C3H8O,,,,,,10000,,,,,,313.2,,0.9,,C,31,
268,Poly(vinyl methyl ether),Homopolymer,2-Butanone,C4H8O,,,,,,10000,,,,,,313.2,,0.5,,C,31,
268,Poly(vinyl methyl ether),Homopolymer,"Acetic acid, ethyl ester",C4H8O2,,37030,,68500,,,,,,,,423,,,4.48,C,38,
268,Poly(vinyl methyl ether),Homopolymer,"1,4-Dioxane",C4H8O2,,,,,,10000,,,,,,313.2,,0.2,,C,31,
269,Poly(vinyl methyl ether),Homopolymer,Cyclopentane,C5H10,,,,,,10000,,,,,,313.2,,1.14,,C,31,
269,Poly(vinyl methyl ether),Homopolymer,"Acetic acid, propyl ester",C5H10O2,,,,,,10000,,,,,,313.2,,0.25,,C,31,
269,Poly(vinyl methyl ether),Homopolymer,"Benzene, fluoro",C6H5F,,,,,,10000,,,,,,313.2,,0,,C,31,
269,Poly(vinyl methyl ether),Homopolymer,Benzene,C6H6,,,,,,10000,,,,,,313.2,,0.15,,C,31,
269,Poly(vinyl methyl ether),Homopolymer,Cyclohexane,C6H12,,37030,,68500,,,,,,,,423,,,6.49,C,38,
269,Poly(vinyl methyl ether),Homopolymer,Cyclohexane,C6H12,,,,,,10000,,,,,,313.2,,1.16,,C,31,
269,Poly(vinyl methyl ether),Homopolymer,Hexane,C6H14,,,,,,10000,,,,,,313.2,,1.16,,C,31,
269,Poly(vinyl methyl ether),Homopolymer,"Ether, diisopropyl",C6H14O,,,,,,10000,,,,,,313.2,,0.76,,C,31,
269,Poly(vinyl methyl ether),Homopolymer,Toluene,C7H8,,,,,,10000,,,,,,313.2,,0.14,,C,31,
269,Poly(vinyl methyl ether),Homopolymer,Heptane,C7H16,,,,,,10000,,,,,,313.2,,1.15,,C,31,
270,Poly(vinyl methyl ether),Homopolymer,"Benzene, ethyl",C8H10,,37030,,68500,,,,,,,,423,,,3.86,C,38,
270,Poly(vinyl methyl ether),Homopolymer,Octane,C8H18,,37030,,68500,,,,,,,,423,,,8.94,C,38,
270,Poly(vinyl methyl ether),Homopolymer,Octane,C8H18,,,,,,10000,,,,,,313.2,,1.16,,C,31,
270,Poly(vinyl methyl ether),Homopolymer,"Pentane, 2,2,4-trimethyl",C8H18,,,,,,10000,,,,,,313.2,,1.53,,C,31,
271,Poly(vinyl trimethylsilane),Homopolymer,Propane,C3H8,,500000,,,,,,,,,,383,,,6.29,C,61,
271,Poly(vinyl trimethylsilane),Homopolymer,Butane,C4H10,,500000,,,,,,,,,,383,,,5.86,C,61,
271,Poly(vinyl trimethylsilane),Homopolymer,Pentane,C5H12,,500000,,,,,,,,,,383,,,5.7,C,61,
271,Poly(vinyl trimethylsilane),Homopolymer,Hexane,C6H14,,500000,,,,,,,,,,383,,,4.53,C,61,
271,Poly(vinyl trimethylsilane),Homopolymer,Heptane,C7H16,,500000,,,,,,,,,,383,,,5.59,C,61,