Page,Solute,Solute_type,Solvent,Solvent_formula,MN_symbol,MN,MW_symbol,MW,MV_symbol,MV,per composition,per substitution,Tg_symbol,Tg (K),Note,T (K),Vg (cm3/g),chi_inf,omega_inf,U/C,Ref,calc_omega_inf
167,Polystyrene,Homopolymer,"Methane, tetrachloro",CCl4,,1780000,,2145000,,1890000,,,,,41,445.9,,,2.59,U,21,3.18
167,Polystyrene,Homopolymer,Difluorochloromethane,CHClF2,,110000,,116600,,,,,,,,408,0.94,,,,17,
167,Polystyrene,Homopolymer,Difluorochloromethane,CHClF2,,110000,,116600,,,,,,,,423,0.81,,,,17,
167,Polystyrene,Homopolymer,Difluorochloromethane,CHClF2,,110000,,116600,,,,,,,,448,0.64,,,,17,
167,Polystyrene,Homopolymer,Difluorochloromethane,CHClF2,,110000,,116600,,,,,,,,473,0.53,,,,17,
167,Polystyrene,Homopolymer,Difluorochloromethane,CHClF2,,110000,,116600,,,,,,,,498,0.44,,,,17,
167,Polystyrene,Homopolymer,"Methane, trichloro",CHCl3,a,600,a,660,,,,,,,,313.2,,0.13,,C,31,
167,Polystyrene,Homopolymer,"Methane, trichloro",CHCl3,,1709,,1811,,,,,,,,413.2,,0.217,,C,19,
167,Polystyrene,Homopolymer,"Methane, trichloro",CHCl3,,20000,,,,,,,,351,,435.5,4.39,,,,56,4.46
167,Polystyrene,Homopolymer,"Methane, trichloro",CHCl3,,20000,,,,,,,,351,,445,3.78,,,,56,4.47
167,Polystyrene,Homopolymer,"Methane, trichloro",CHCl3,,20000,,,,,,,,351,,492.9,2.02,,,,56,4.5
167,Polystyrene,Homopolymer,"Methane, trichloro",CHCl3,,20000,,,,,,,,351,,502.6,2.36,,,,56,3.48
167,Polystyrene,Homopolymer,"Methane, trichloro",CHCl3,,76000,,82000,,,,,,368.45,42,423.2,,,3.32,C,86,
167,Polystyrene,Homopolymer,"Methane, trichloro",CHCl3,,110000,,116600,,,,,,,,448,3.2,,,,17,5.05
167,Polystyrene,Homopolymer,Chlorofluoromethane,CH2ClF,,110000,,116600,,,,,,,,408,2.01,,,,17,
167,Polystyrene,Homopolymer,Chlorofluoromethane,CH2ClF,,110000,,116600,,,,,,,,423,1.65,,,,17,
167,Polystyrene,Homopolymer,Chlorofluoromethane,CH2ClF,,110000,,116600,,,,,,,,448,1.2,,,,17,
167,Polystyrene,Homopolymer,"Methane, dichloro",CH2Cl2,a,600,a,660,,,,,,,,313.2,,0.34,,C,31,
167,Polystyrene,Homopolymer,"Methane, dichloro",CH2Cl2,,20000,,,,,,,,351,,435.5,2.86,,,,56,5.76
167,Polystyrene,Homopolymer,"Methane, dichloro",CH2Cl2,,20000,,,,,,,,351,,445,2.72,,,,56,5.29
167,Polystyrene,Homopolymer,"Methane, dichloro",CH2Cl2,,20000,,,,,,,,351,,492.9,2.02,,,,56,4.12
168,Polystyrene,Homopolymer,"Methane, dichloro",CH2Cl2,,20000,,,,,,,,351,,502.6,2.15,,,,56,3.58
168,Polystyrene,Homopolymer,"Methane, dichloro",CH2Cl2,,110000,,116600,,,,,,,,423,5.2,,,,17,3.82
168,Polystyrene,Homopolymer,"Methane, dichloro",CH2Cl2,,110000,,116600,,,,,,,,448,3.35,,,,17,4.13
168,Polystyrene,Homopolymer,"Methane, dichloro",CH2Cl2,,110000,,116600,,,,,,,,473,2.21,,,,17,4.61
168,Polystyrene,Homopolymer,Methyl chloride,CH3Cl,,110000,,116600,,,,,,,,423,1.7,,,,17,
168,Polystyrene,Homopolymer,Methyl chloride,CH3Cl,,110000,,116600,,,,,,,,448,1.3,,,,17,
168,Polystyrene,Homopolymer,"Formic acid, amide",CH3NO,,20000,,,,,,,,351,,435.5,,,144.01,C,56,
168,Polystyrene,Homopolymer,"Formic acid, amide",CH3NO,,20000,,,,,,,,351,,445,,,130.31,C,56,
168,Polystyrene,Homopolymer,"Formic acid, amide",CH3NO,,20000,,,,,,,,351,,492.9,,,85.25,C,56,
168,Polystyrene,Homopolymer,"Formic acid, amide",CH3NO,,20000,,,,,,,,351,,502.6,,,59.6,C,56,
168,Polystyrene,Homopolymer,Methanol,CH4O,,20000,,,,,,,,351,,435.5,1.12,,,,56,40.8
168,Polystyrene,Homopolymer,Methanol,CH4O,,20000,,,,,,,,351,,445,1.12,,,,56,33.9
168,Polystyrene,Homopolymer,Methanol,CH4O,,20000,,,,,,,,351,,492.9,1.13,,,,56,15.6
168,Polystyrene,Homopolymer,Methanol,CH4O,,20000,,,,,,,,351,,502.6,1.55,,,,56,10.1
168,Polystyrene,Homopolymer,"Ethane, 1,1,2-trichloro-1,2,2-trifluoro",C2Cl3F3,,110000,,116600,,,,,,,,423,3.5,,,,17,3.61
168,Polystyrene,Homopolymer,"Ethane, 1,1,2-trichloro-1,2,2-trifluoro",C2Cl3F3,,110000,,116600,,,,,,,,448,2.33,,,,17,3.86
168,Polystyrene,Homopolymer,"Ethane, 1,1,2-trichloro-1,2,2-trifluoro",C2Cl3F3,,110000,,116600,,,,,,,,473,1.65,,,,17,4.16
168,Polystyrene,Homopolymer,"Ethane, 1,1,2-trichloro-1,2,2-trifluoro",C2Cl3F3,,110000,,116600,,,,,,,,498,1.22,,,,17,
168,Polystyrene,Homopolymer,"Ethene, tetrachloro",C2Cl4,a,600,a,660,,,,,,,,313.2,,0.36,,C,31,
169,Polystyrene,Homopolymer,"Ethene, trichloro",C2HCl3,a,600,a,660,,,,,,,,313.2,,0.19,,C,31,
169,Polystyrene,Homopolymer,"Ethene, trichloro",C2HCl3,,20000,,,,,,,,351,,435.5,6.46,,,,56,4.65
169,Polystyrene,Homopolymer,"Ethene, trichloro",C2HCl3,,20000,,,,,,,,351,,445,5.84,,,,56,4.35
169,Polystyrene,Homopolymer,"Ethene, trichloro",C2HCl3,,20000,,,,,,,,351,,492.9,3.31,,,,56,3.7
169,Polystyrene,Homopolymer,"Ethene, trichloro",C2HCl3,,20000,,,,,,,,351,,502.6,3.62,,,,56,3.06
169,Polystyrene,Homopolymer,"Acetic acid, nitrile",C2H3N,,20000,,,,,,,,351,,435.5,2.75,,,,56,33.1
169,Polystyrene,Homopolymer,"Acetic acid, nitrile",C2H3N,,20000,,,,,,,,351,,445,2.81,,,,56,27.5
169,Polystyrene,Homopolymer,"Acetic acid, nitrile",C2H3N,,20000,,,,,,,,351,,492.9,1.82,,,,56,21.2
169,Polystyrene,Homopolymer,"Acetic acid, nitrile",C2H3N,,20000,,,,,,,,351,,502.6,2.39,,,,56,14.4
169,Polystyrene,Homopolymer,"Acetic acid, nitrile",C2H3N,,97000,,102800,,,,,,,,423.2,,,19.8,C,1,
169,Polystyrene,Homopolymer,"Acetic acid, nitrile",C2H3N,,97000,,102800,,,,,,,,448.2,,,19.8,C,1,
169,Polystyrene,Homopolymer,"Acetic acid, nitrile",C2H3N,,97000,,102800,,,,,,,,473.2,,,19.7,C,1,
169,Polystyrene,Homopolymer,"Acetic acid, nitrile",C2H3N,,110000,,116600,,,,,,,,423.2,,,18.6,C,9,
169,Polystyrene,Homopolymer,"Ethane, 1,2-dichloro",C2H4Cl2,,20000,,,,,,,,351,,435.5,5.59,,,,56,6.35
169,Polystyrene,Homopolymer,"Ethane, 1,2-dichloro",C2H4Cl2,,20000,,,,,,,,351,,445,5.14,,,,56,5.81
169,Polystyrene,Homopolymer,"Ethane, 1,2-dichloro",C2H4Cl2,,20000,,,,,,,,351,,492.9,3.15,,,,56,4.55
169,Polystyrene,Homopolymer,"Ethane, 1,2-dichloro",C2H4Cl2,,20000,,,,,,,,351,,502.6,3.21,,,,56,3.94
169,Polystyrene,Homopolymer,"Ethane, 1,2-dichloro",C2H4Cl2,,97000,,102800,,,,,,,,423.2,,,4.55,C,1,
169,Polystyrene,Homopolymer,"Ethane, 1,2-dichloro",C2H4Cl2,,97000,,102800,,,,,,,,448.2,,,4.83,C,1,
169,Polystyrene,Homopolymer,"Ethane, 1,2-dichloro",C2H4Cl2,,97000,,102800,,,,,,,,473.2,,,5.1,C,1,
169,Polystyrene,Homopolymer,Acetic acid,C2H4O2,,20000,,,,,,,,351,,435.5,,,36.52,C,56,
169,Polystyrene,Homopolymer,Acetic acid,C2H4O2,,20000,,,,,,,,351,,445,,,31.81,C,56,
170,Polystyrene,Homopolymer,Acetic acid,C2H4O2,,20000,,,,,,,,351,,492.9,,,16.32,C,56,
170,Polystyrene,Homopolymer,Acetic acid,C2H4O2,,20000,,,,,,,,351,,502.6,,,17.95,C,56,
170,Polystyrene,Homopolymer,"Ethane, nitro",C2H5NO2,,97000,,102800,,,,,,,,423.2,,,11,C,1,
170,Polystyrene,Homopolymer,"Ethane, nitro",C2H5NO2,,97000,,102800,,,,,,,,448.2,,,11.6,C,1,
170,Polystyrene,Homopolymer,"Ethane, nitro",C2H5NO2,,97000,,102800,,,,,,,,473.2,,,12.6,C,1,
170,Polystyrene,Homopolymer,Ethanol,C2H6O,,20000,,,,,,,,351,,435.5,1.57,,,,56,27.6
170,Polystyrene,Homopolymer,Ethanol,C2H6O,,20000,,,,,,,,351,,445,1.63,,,,56,21.8
170,Polystyrene,Homopolymer,Ethanol,C2H6O,,20000,,,,,,,,351,,492.9,1.15,,,,56,13.7
170,Polystyrene,Homopolymer,Ethanol,C2H6O,,20000,,,,,,,,351,,502.6,1.48,,,,56,9.4
170,Polystyrene,Homopolymer,Ethanol,C2H6O,,110000,,116600,,,,,,,,423.2,,,17.5,C,9,
170,Polystyrene,Homopolymer,"1,2-Ethanediol",C2H6O2,,20000,,,,,,,,351,,435.5,11.15,,,,56,104
170,Polystyrene,Homopolymer,"1,2-Ethanediol",C2H6O2,,20000,,,,,,,,351,,445,7.57,,,,56,109
170,Polystyrene,Homopolymer,"1,2-Ethanediol",C2H6O2,,20000,,,,,,,,351,,492.9,3.66,,,,56,54.4
170,Polystyrene,Homopolymer,"1,2-Ethanediol",C2H6O2,,20000,,,,,,,,351,,502.6,3.85,,,,56,40.5
170,Polystyrene,Homopolymer,2-Propanone,C3H6O,a,600,a,660,,,,,,,,313.2,,1.08,,C,31,
170,Polystyrene,Homopolymer,2-Propanone,C3H6O,,16510,,17500,,,,,,,43,423,,,8.08,C,38,
170,Polystyrene,Homopolymer,2-Propanone,C3H6O,,20000,,,,,,,,351,,435.5,2.05,,,,56,16.7
170,Polystyrene,Homopolymer,2-Propanone,C3H6O,,20000,,,,,,,,351,,445,1.94,,,,56,15.2
170,Polystyrene,Homopolymer,2-Propanone,C3H6O,,20000,,,,,,,,351,,492.9,1.45,,,,56,11.1
170,Polystyrene,Homopolymer,2-Propanone,C3H6O,,20000,,,,,,,,351,,502.6,1.21,,,,56,12.2
171,Polystyrene,Homopolymer,"Formic acid, amide, N,N-dimethyl",C3H7NO,,61500,,103935,,,,,,,,433.2,20.5,,,,75,13.2
171,Polystyrene,Homopolymer,"Formic acid, amide, N,N-dimethyl",C3H7NO,,76000,,82000,,,,,,368.45,42,413.2,37.97,,,,86,11.6
171,Polystyrene,Homopolymer,"Formic acid, amide, N,N-dimethyl",C3H7NO,,76000,,82000,,,,,,368.45,42,423.2,,,10.64,C,86,
171,Polystyrene,Homopolymer,"Formic acid, amide, N,N-dimethyl",C3H7NO,,76000,,82000,,,,,,368.45,42,433.2,23.96,,,,86,11.3
171,Polystyrene,Homopolymer,"Formic acid, amide, N,N-dimethyl",C3H7NO,,76000,,82000,,,,,,368.45,42,453.2,15.77,,,,86,11.2
171,Polystyrene,Homopolymer,"Formic acid, amide, N,N-dimethyl",C3H7NO,,76000,,82000,,,,,,368.45,42,473.2,10.75,,,,86,11.2
171,Polystyrene,Homopolymer,"Formic acid, amide, N,N-dimethyl",C3H7NO,,97000,,102800,,,,,,,,423.2,,,10.6,C,1,
171,Polystyrene,Homopolymer,"Formic acid, amide, N,N-dimethyl",C3H7NO,,97000,,102800,,,,,,,,448.2,,,10.8,C,1,
171,Polystyrene,Homopolymer,"Formic acid, amide, N,N-dimethyl",C3H7NO,,97000,,102800,,,,,,,,473.2,,,11,C,1,
171,Polystyrene,Homopolymer,Propane,C3H8,,110000,,116600,,,,,,,,408,0.9,,,,17,
171,Polystyrene,Homopolymer,Propane,C3H8,,110000,,116600,,,,,,,,423,0.78,,,,17,
171,Polystyrene,Homopolymer,Propane,C3H8,,110000,,116600,,,,,,,,448,0.62,,,,17,
171,Polystyrene,Homopolymer,Propane,C3H8,,110000,,116600,,,,,,,,473,0.51,,,,17,
171,Polystyrene,Homopolymer,Propane,C3H8,,110000,,116600,,,,,,,,498,0.43,,,,17,
171,Polystyrene,Homopolymer,1-Propanol,C3H8O,,20000,,,,,,,,351,,435.5,2.41,,,,56,23.9
171,Polystyrene,Homopolymer,1-Propanol,C3H8O,,20000,,,,,,,,351,,445,2.49,,,,56,18.8
171,Polystyrene,Homopolymer,1-Propanol,C3H8O,,20000,,,,,,,,351,,492.9,1.73,,,,56,11.6
171,Polystyrene,Homopolymer,1-Propanol,C3H8O,,20000,,,,,,,,351,,502.6,2.39,,,,56,7.35
171,Polystyrene,Homopolymer,2-Propanol,C3H8O,a,600,a,660,,,,,,,,313.2,,2.64,,C,31,
171,Polystyrene,Homopolymer,2-Propanol,C3H8O,,20000,,,,,,,,351,,435.5,1.47,,,,56,26.7
171,Polystyrene,Homopolymer,2-Propanol,C3H8O,,20000,,,,,,,,351,,445,1.62,,,,56,20.1
171,Polystyrene,Homopolymer,2-Propanol,C3H8O,,20000,,,,,,,,351,,492.9,1.44,,,,56,10.7
171,Polystyrene,Homopolymer,2-Propanol,C3H8O,,20000,,,,,,,,351,,502.6,2.2,,,,56,6.33
172,Polystyrene,Homopolymer,2-Butanone,C4H8O,a,600,a,660,,,,,,,,313.2,,0.84,,C,31,
172,Polystyrene,Homopolymer,2-Butanone,C4H8O,,3524,,3876,,3600,,,,,,400,,,6.86,U,21,7.72
172,Polystyrene,Homopolymer,2-Butanone,C4H8O,,3524,,3876,,3600,,,,,,421.6,,,6.46,U,21,7.61
172,Polystyrene,Homopolymer,2-Butanone,C4H8O,,3524,,3876,,3600,,,,,,444.8,,,6.2,U,21,7.74
172,Polystyrene,Homopolymer,2-Butanone,C4H8O,,10300,,10920,,,,,,,44,321.7,147.8,,,,87,6.44
172,Polystyrene,Homopolymer,2-Butanone,C4H8O,,20000,,,,,,,,351,,435.5,3.16,,,,56,14.8
172,Polystyrene,Homopolymer,2-Butanone,C4H8O,,20000,,,,,,,,351,,445,3.02,,,,56,13.2
172,Polystyrene,Homopolymer,2-Butanone,C4H8O,,20000,,,,,,,,351,,492.9,2.11,,,,56,9.73
172,Polystyrene,Homopolymer,2-Butanone,C4H8O,,20000,,,,,,,,351,,502.6,2.15,,,,56,8.57
172,Polystyrene,Homopolymer,2-Butanone,C4H8O,,96200,,97600,,98200,,,,,40,396.5,,,7.61,U,21,8.51
172,Polystyrene,Homopolymer,2-Butanone,C4H8O,,96200,,97600,,98200,,,,,40,420,,,7.13,U,21,8.37
172,Polystyrene,Homopolymer,2-Butanone,C4H8O,,96200,,97600,,98200,,,,,40,447.5,,,6.48,U,21,8.15
172,Polystyrene,Homopolymer,2-Butanone,C4H8O,,97000,,102800,,,,,,,,423.2,,,9.44,C,1,
172,Polystyrene,Homopolymer,2-Butanone,C4H8O,,97000,,102800,,,,,,,,448.2,,,9.3,C,1,
172,Polystyrene,Homopolymer,2-Butanone,C4H8O,,97000,,102800,,,,,,,,473.2,,,9.12,C,1,
172,Polystyrene,Homopolymer,2-Butanone,C4H8O,,110000,,116600,,,,,,,,423.2,,,10.5,C,9,
172,Polystyrene,Homopolymer,2-Butanone,C4H8O,,1780000,,2145000,,1890000,,,,,41,395.5,,,8.72,U,21,9.73
172,Polystyrene,Homopolymer,2-Butanone,C4H8O,,1780000,,2145000,,1890000,,,,,41,420.9,,,7.64,U,21,8.98
172,Polystyrene,Homopolymer,2-Butanone,C4H8O,,1780000,,2145000,,1890000,,,,,41,445.9,,,6.88,U,21,8.61
172,Polystyrene,Homopolymer,2-Butanone,C4H8O,,,,,,,,,,,,298.4,,0.901,,C,32,
172,Polystyrene,Homopolymer,2-Butanone,C4H8O,,,,,,,,,,,,323.7,,0.628,,C,32,
172,Polystyrene,Homopolymer,2-Butanone,C4H8O,,,,,,,,,,,,345.6,,0.465,,C,32,
172,Polystyrene,Homopolymer,2-Butanone,C4H8O,,,,,,,,,,,,363.7,,0.418,,C,32,
172,Polystyrene,Homopolymer,2-Butanone,C4H8O,,,,,,,,,,,,383.7,,0.409,,C,32,
172,Polystyrene,Homopolymer,2-Butanone,C4H8O,,,,,,,,,,,,418.7,,0.582,,C,32,
172,Polystyrene,Homopolymer,"Furane, tetrahydro",C4H8O,,20000,,,,,,,,351,,435.5,4.53,,,,56,7.7
173,Polystyrene,Homopolymer,"Furane, tetrahydro",C4H8O,,20000,,,,,,,,351,,445,4.17,,,,56,7.18
173,Polystyrene,Homopolymer,"Furane, tetrahydro",C4H8O,,20000,,,,,,,,351,,492.9,2.49,,,,56,6.3
173,Polystyrene,Homopolymer,"Furane, tetrahydro",C4H8O,,20000,,,,,,,,351,,502.6,3.51,,,,56,4.01
173,Polystyrene,Homopolymer,"Furane, tetrahydro",C4H8O,,,,,,,,,,,,298.4,,0.697,,C,32,
173,Polystyrene,Homopolymer,"Furane, tetrahydro",C4H8O,,,,,,,,,,,,323.7,,0.339,,C,32,
173,Polystyrene,Homopolymer,"Furane, tetrahydro",C4H8O,,,,,,,,,,,,345.6,,0.339,,C,32,
173,Polystyrene,Homopolymer,"Furane, tetrahydro",C4H8O,,,,,,,,,,,,363.7,,0.223,,C,32,
173,Polystyrene,Homopolymer,"Furane, tetrahydro",C4H8O,,,,,,,,,,,,383.7,,0.352,,C,32,
173,Polystyrene,Homopolymer,"Furane, tetrahydro",C4H8O,,,,,,,,,,,,418.7,,0.709,,C,32,
173,Polystyrene,Homopolymer,"Acetic acid, ethyl ester",C4H8O2,,16510,,17500,,,,,,,43,423,,,5.93,C,38,
173,Polystyrene,Homopolymer,"Acetic acid, ethyl ester",C4H8O2,,20000,,,,,,,,351,,435.5,2.77,,,,56,12.8
173,Polystyrene,Homopolymer,"Acetic acid, ethyl ester",C4H8O2,,20000,,,,,,,,351,,445,2.7,,,,56,11.2
173,Polystyrene,Homopolymer,"Acetic acid, ethyl ester",C4H8O2,,20000,,,,,,,,351,,492.9,1.24,,,,56,12.5
173,Polystyrene,Homopolymer,"Acetic acid, ethyl ester",C4H8O2,,20000,,,,,,,,351,,502.6,1.76,,,,56,7.93
173,Polystyrene,Homopolymer,"1,4-Dioxane",C4H8O2,a,600,a,660,,,,,,,,313.2,,0.43,,C,31,
173,Polystyrene,Homopolymer,"1,4-Dioxane",C4H8O2,,3524,,3876,,3600,,,,,,400,,,3.97,U,21,4.31
173,Polystyrene,Homopolymer,"1,4-Dioxane",C4H8O2,,3524,,3876,,3600,,,,,,421.6,,,3.95,U,21,4.42
173,Polystyrene,Homopolymer,"1,4-Dioxane",C4H8O2,,3524,,3876,,3600,,,,,,444.8,,,3.71,U,21,4.32
173,Polystyrene,Homopolymer,"1,4-Dioxane",C4H8O2,,10300,,10920,,,,,,,44,323.2,255.8,,,,87,6.36
173,Polystyrene,Homopolymer,"1,4-Dioxane",C4H8O2,,20000,,,,,,,,351,,435.5,7.29,,,,56,8.41
173,Polystyrene,Homopolymer,"1,4-Dioxane",C4H8O2,,20000,,,,,,,,351,,445,6.56,,,,56,7.77
173,Polystyrene,Homopolymer,"1,4-Dioxane",C4H8O2,,20000,,,,,,,,351,,492.9,2.84,,,,56,8.2
173,Polystyrene,Homopolymer,"1,4-Dioxane",C4H8O2,,20000,,,,,,,,351,,502.6,3.57,,,,56,5.72
173,Polystyrene,Homopolymer,"1,4-Dioxane",C4H8O2,,76000,,82000,,,,,,368.45,42,413.2,17.03,,,,86,5.8
173,Polystyrene,Homopolymer,"1,4-Dioxane",C4H8O2,,76000,,82000,,,,,,368.45,42,423.2,,,5.52,C,86,
174,Polystyrene,Homopolymer,"1,4-Dioxane",C4H8O2,,76000,,82000,,,,,,368.45,42,433.2,11.76,,,,86,5.46
174,Polystyrene,Homopolymer,"1,4-Dioxane",C4H8O2,,76000,,82000,,,,,,368.45,42,453.2,8.39,,,,86,5.23
174,Polystyrene,Homopolymer,"1,4-Dioxane",C4H8O2,,76000,,82000,,,,,,368.45,42,473.2,6.16,,,,86,5.09
174,Polystyrene,Homopolymer,"1,4-Dioxane",C4H8O2,,96200,,97600,,98200,,,,,40,396.5,,,4.56,U,21,4.93
174,Polystyrene,Homopolymer,"1,4-Dioxane",C4H8O2,,96200,,97600,,98200,,,,,40,420,,,4.33,U,21,4.83
174,Polystyrene,Homopolymer,"1,4-Dioxane",C4H8O2,,96200,,97600,,98200,,,,,40,447.5,,,4.15,U,21,4.85
174,Polystyrene,Homopolymer,"1,4-Dioxane",C4H8O2,,97000,,102800,,,,,,,,423.2,,,5.17,C,1,
174,Polystyrene,Homopolymer,"1,4-Dioxane",C4H8O2,,97000,,102800,,,,,,,,448.2,,,5.41,C,1,
174,Polystyrene,Homopolymer,"1,4-Dioxane",C4H8O2,,97000,,102800,,,,,,,,473.2,,,5.71,C,1,
174,Polystyrene,Homopolymer,"1,4-Dioxane",C4H8O2,,1780000,,2145000,,1890000,,,,,41,395.5,,,5.2,U,21,5.61
174,Polystyrene,Homopolymer,"1,4-Dioxane",C4H8O2,,1780000,,2145000,,1890000,,,,,41,420.9,,,4.64,U,21,5.19
174,Polystyrene,Homopolymer,"1,4-Dioxane",C4H8O2,,1780000,,2145000,,1890000,,,,,41,445.9,,,4.3,U,21,5.01
174,Polystyrene,Homopolymer,2-Methylpropane,C4H10,,110000,,116600,,,,,,,,423,1.2,,,,17,
174,Polystyrene,Homopolymer,2-Methylpropane,C4H10,,110000,,116600,,,,,,,,448,0.86,,,,17,
174,Polystyrene,Homopolymer,2-Methylpropane,C4H10,,110000,,116600,,,,,,,,473,0.65,,,,17,
174,Polystyrene,Homopolymer,2-Methylpropane,C4H10,,110000,,116600,,,,,,,,498,0.52,,,,17,
174,Polystyrene,Homopolymer,1-Butanol,C4H10O,,1709,,1811,,,,,,,,413.2,,1.158,,C,19,
174,Polystyrene,Homopolymer,1-Butanol,C4H10O,,20000,,,,,,,,351,,435.5,4.38,,,,56,19.2
174,Polystyrene,Homopolymer,1-Butanol,C4H10O,,20000,,,,,,,,351,,445,3.58,,,,56,18.6
174,Polystyrene,Homopolymer,1-Butanol,C4H10O,,20000,,,,,,,,351,,492.9,1.64,,,,56,15.5
174,Polystyrene,Homopolymer,1-Butanol,C4H10O,,20000,,,,,,,,351,,502.6,1.98,,,,56,11
174,Polystyrene,Homopolymer,"Ether, diethyl",C4H10O,,20000,,,,,,,,351,,435.5,1.51,,,,56,13.1
174,Polystyrene,Homopolymer,"Ether, diethyl",C4H10O,,20000,,,,,,,,351,,445,1.35,,,,56,12.9
175,Polystyrene,Homopolymer,"Ether, diethyl",C4H10O,,20000,,,,,,,,351,,492.9,,,13.13,C,56,
175,Polystyrene,Homopolymer,"Ether, diethyl",C4H10O,,20000,,,,,,,,351,,502.6,,,13.13,C,56,
175,Polystyrene,Homopolymer,"1-Propanol, 2-methyl",C4H10O,,20000,,,,,,,,351,,435.5,,,25.05,C,56,
175,Polystyrene,Homopolymer,"1-Propanol, 2-methyl",C4H10O,,20000,,,,,,,,351,,445,,,21.99,C,56,
175,Polystyrene,Homopolymer,"1-Propanol, 2-methyl",C4H10O,,20000,,,,,,,,351,,492.9,,,18.04,C,56,
175,Polystyrene,Homopolymer,"1-Propanol, 2-methyl",C4H10O,,20000,,,,,,,,351,,502.6,,,12.58,C,56,
175,Polystyrene,Homopolymer,Pyridine,C5H5N,,,,2200,,,,,,,45,432.9,16.07,,,,52,6.05
175,Polystyrene,Homopolymer,Pyridine,C5H5N,,,,2200,,,,,,,45,444.4,12.99,,,,52,5.9
175,Polystyrene,Homopolymer,Pyridine,C5H5N,,,,2200,,,,,,,45,452.5,10.75,,,,52,6.08
175,Polystyrene,Homopolymer,Pyridine,C5H5N,,,,2200,,,,,,,45,454.6,10.26,,,,52,6.12
175,Polystyrene,Homopolymer,Pyridine,C5H5N,,,,4000,,,,,,,46,432.9,12.84,,,,52,7.57
175,Polystyrene,Homopolymer,Pyridine,C5H5N,,,,4000,,,,,,,46,442.5,10.72,,,,52,7.42
175,Polystyrene,Homopolymer,Pyridine,C5H5N,,,,4000,,,,,,,46,450.5,9.01,,,,52,7.54
175,Polystyrene,Homopolymer,Pyridine,C5H5N,,16510,,17500,,,,,,,43,444.4,12.63,,,,52,6.07
175,Polystyrene,Homopolymer,Pyridine,C5H5N,,16510,,17500,,,,,,,43,452.5,10.88,,,,52,6.01
175,Polystyrene,Homopolymer,Pyridine,C5H5N,,16510,,17500,,,,,,,43,465.1,8.64,,,,52,6
175,Polystyrene,Homopolymer,Pyridine,C5H5N,,16510,,17500,,,,,,,43,473.9,7.35,,,,52,6.06
175,Polystyrene,Homopolymer,Pyridine,C5H5N,,20000,,,,,,,,351,,435.5,9.02,,,,56,10.2
175,Polystyrene,Homopolymer,Pyridine,C5H5N,,20000,,,,,,,,351,,445,10.54,,,,56,7.18
175,Polystyrene,Homopolymer,Pyridine,C5H5N,,20000,,,,,,,,351,,492.9,5.27,,,,56,6.23
175,Polystyrene,Homopolymer,Pyridine,C5H5N,,20000,,,,,,,,351,,502.6,5.49,,,,56,5.19
175,Polystyrene,Homopolymer,Cyclopentane,C5H10,a,600,a,660,,,,,,,,313.2,,0.64,,C,31,
175,Polystyrene,Homopolymer,Cyclopentane,C5H10,,110000,,116600,,,,,,,,448,3.05,,,,17,7.55
176,Polystyrene,Homopolymer,2-Pentanone,C5H10O,,1709,,1811,,,,,,,,413.2,,0.586,,C,19,
176,Polystyrene,Homopolymer,3-Pentanone,C5H10O,,,,,,,,,,,,298.4,,1.271,,C,32,
176,Polystyrene,Homopolymer,3-Pentanone,C5H10O,,,,,,,,,,,,323.7,,0.507,,C,32,
176,Polystyrene,Homopolymer,3-Pentanone,C5H10O,,,,,,,,,,,,345.6,,0.375,,C,32,
176,Polystyrene,Homopolymer,3-Pentanone,C5H10O,,,,,,,,,,,,363.7,,0.339,,C,32,
176,Polystyrene,Homopolymer,3-Pentanone,C5H10O,,,,,,,,,,,,383.7,,0.281,,C,32,
176,Polystyrene,Homopolymer,3-Pentanone,C5H10O,,,,,,,,,,,,418.7,,1.154,,C,32,
176,Polystyrene,Homopolymer,"Acetic acid, propyl ester",C5H10O2,a,600,a,660,,,,,,,,313.2,,0.52,,C,31,
176,Polystyrene,Homopolymer,Pentane,C5H12,,20000,,,,,,,,351,,435.5,1.11,,,,56,20.5
176,Polystyrene,Homopolymer,Pentane,C5H12,,20000,,,,,,,,351,,445,1.25,,,,56,16.2
176,Polystyrene,Homopolymer,Pentane,C5H12,,20000,,,,,,,,351,,492.9,,,16.2,C,56,
176,Polystyrene,Homopolymer,Pentane,C5H12,,20000,,,,,,,,351,,502.6,,,16.2,C,56,
176,Polystyrene,Homopolymer,Pentane,C5H12,,110000,,116600,,,,,,,,408,3.35,,,,17,9.98