Page,Solute,Solute_type,Solvent,Solvent_formula,MN_symbol,MN,MW_symbol,MW,MV_symbol,MV,per composition,per substitution,Tg_symbol,Tg (K),Note,T (K),Vg (cm3/g),chi_inf,omega_inf,U/C,Ref,calc_omega_inf
52,Poly(diethylsiloxane),Homopolymer,Hexane,C6H14,,112000,,280000,,,,,,,,363.2,23.7,,,,12,6.45
52,Poly(diethylsiloxane),Homopolymer,Hexane,C6H14,,112000,,280000,,,,,,,,373.2,18.2,,,,12,6.56
52,Poly(diethylsiloxane),Homopolymer,Hexane,C6H14,,112000,,280000,,,,,,,,383.2,14.1,,,,12,6.72
52,Poly(diethylsiloxane),Homopolymer,Hexane,C6H14,,112000,,280000,,,,,,,,393.2,11.1,,,,12,6.89
52,Poly(diethylsiloxane),Homopolymer,Hexane,C6H14,,112000,,280000,,,,,,,,403.2,8.84,,,,12,7.07
52,Poly(diethylsiloxane),Homopolymer,Toluene,C7H8,,112000,,280000,,,,,,,,333.2,230.6,,,,12,5.86
52,Poly(diethylsiloxane),Homopolymer,Toluene,C7H8,,112000,,280000,,,,,,,,343.2,159.2,,,,12,5.8
52,Poly(diethylsiloxane),Homopolymer,Toluene,C7H8,,112000,,280000,,,,,,,,353.2,112.5,,,,12,5.77
52,Poly(diethylsiloxane),Homopolymer,Toluene,C7H8,,112000,,280000,,,,,,,,363.2,81.2,,,,12,5.75
52,Poly(diethylsiloxane),Homopolymer,Toluene,C7H8,,112000,,280000,,,,,,,,373.2,59.2,,,,12,5.75
52,Poly(diethylsiloxane),Homopolymer,Toluene,C7H8,,112000,,280000,,,,,,,,383.2,44.9,,,,12,5.75
52,Poly(diethylsiloxane),Homopolymer,Toluene,C7H8,,112000,,280000,,,,,,,,393.2,34.1,,,,12,5.79
52,Poly(diethylsiloxane),Homopolymer,Toluene,C7H8,,112000,,280000,,,,,,,,403.2,26.4,,,,12,5.81
53,Poly(diethylsiloxane),Homopolymer,Heptane,C7H16,,112000,,280000,,,,,,,,333.2,138.5,,,,12,5.98
53,Poly(diethylsiloxane),Homopolymer,Heptane,C7H16,,112000,,280000,,,,,,,,343.2,96.8,,,,12,5.97
53,Poly(diethylsiloxane),Homopolymer,Heptane,C7H16,,112000,,280000,,,,,,,,353.2,69.1,,,,12,5.98
53,Poly(diethylsiloxane),Homopolymer,Heptane,C7H16,,112000,,280000,,,,,,,,363.2,50.2,,,,12,6.04
53,Poly(diethylsiloxane),Homopolymer,Heptane,C7H16,,112000,,280000,,,,,,,,373.2,37.1,,,,12,6.12
53,Poly(diethylsiloxane),Homopolymer,Heptane,C7H16,,112000,,280000,,,,,,,,383.2,27.9,,,,12,6.22
53,Poly(diethylsiloxane),Homopolymer,Heptane,C7H16,,112000,,280000,,,,,,,,393.2,21.3,,,,12,6.34
53,Poly(diethylsiloxane),Homopolymer,Heptane,C7H16,,112000,,280000,,,,,,,,403.2,16.6,,,,12,6.43
54,Poly(dimethylsiloxane),Homopolymer,"Methane, tetrachloro",CCl4,,3700,,,,,,,,,,333.2,105.71,,,,24,2.43
54,Poly(dimethylsiloxane),Homopolymer,"Methane, tetrachloro",CCl4,,30000,,,,,,,,,5,298.2,371.5,,,,63,2.64
54,Poly(dimethylsiloxane),Homopolymer,"Methane, trichloro",CHCl3,,30000,,,,,,,,,5,298.2,226.6,,,,63,3.25
54,Poly(dimethylsiloxane),Homopolymer,"Methane, trichloro",CHCl3,,89000,,,,,,,,,6,303,,,3.366,C,13,
54,Poly(dimethylsiloxane),Homopolymer,"Methane, dichloro",CH2Cl2,,30000,,,,,,,,,5,298.2,95,,,,63,4.98
54,Poly(dimethylsiloxane),Homopolymer,"Methane, dichloro",CH2Cl2,,89000,,,,,,,,,6,303,,,4.937,C,13,
54,Poly(dimethylsiloxane),Homopolymer,"1,4-Dioxane",C4H8O2,,17000,,20400,,,,,,,,333.2,127.8,,,,12,8.51
54,Poly(dimethylsiloxane),Homopolymer,"1,4-Dioxane",C4H8O2,,30000,,90000,,,,,,,,333.2,124.7,,,,12,8.72
54,Poly(dimethylsiloxane),Homopolymer,"1,4-Dioxane",C4H8O2,,,,,,500000,,,,,,298.2,,,9.35,C,36,
54,Poly(dimethylsiloxane),Homopolymer,"1,4-Dioxane",C4H8O2,,,,,,500000,,,,,,313.2,,,8.87,C,36,
54,Poly(dimethylsiloxane),Homopolymer,"1,4-Dioxane",C4H8O2,,,,,,500000,,,,,,328.2,,,8.59,C,36,
54,Poly(dimethylsiloxane),Homopolymer,"1,4-Dioxane",C4H8O2,,,,,,500000,,,,,,343.2,,,8.14,C,36,
54,Poly(dimethylsiloxane),Homopolymer,Cyclopentane,C5H10,,,,,,500000,,,,,,298.2,,,5.07,C,36,
54,Poly(dimethylsiloxane),Homopolymer,Cyclopentane,C5H10,,,,,,500000,,,,,,313.2,,,5.14,C,36,
54,Poly(dimethylsiloxane),Homopolymer,Cyclopentane,C5H10,,,,,,500000,,,,,,328.2,,,5.18,C,36,
54,Poly(dimethylsiloxane),Homopolymer,Cyclopentane,C5H10,,,,,,500000,,,,,,343.2,,,5.34,C,36,
54,Poly(dimethylsiloxane),Homopolymer,"Butane, 2-methyl",C5H12,,,,,,500000,,,,,,298.2,58.39,,,,16,6.15
55,Poly(dimethylsiloxane),Homopolymer,Pentane,C5H12,,3700,,,,,,,,,,333.2,24.76,,,,24,6.38
55,Poly(dimethylsiloxane),Homopolymer,Pentane,C5H12,,15100,,28700,,,,,,,,313.2,46.9,,,,41,6.09
55,Poly(dimethylsiloxane),Homopolymer,Pentane,C5H12,,15100,,28700,,,,,,,,323.2,34.3,,,,41,6.12
55,Poly(dimethylsiloxane),Homopolymer,Pentane,C5H12,,15100,,28700,,,,,,,,333.2,25.6,,,,41,6.18
55,Poly(dimethylsiloxane),Homopolymer,Pentane,C5H12,,15100,,28700,,,,,,,,343.2,20,,,,41,6.08
55,Poly(dimethylsiloxane),Homopolymer,Pentane,C5H12,,15100,,28700,,,,,,,,353.2,15.3,,,,41,6.24
55,Poly(dimethylsiloxane),Homopolymer,Pentane,C5H12,,20700,,95300,,,,,,,,303.2,,,5.937,C,41,
55,Poly(dimethylsiloxane),Homopolymer,Pentane,C5H12,,20700,,95300,,,,,,,,313.2,48,,,,41,5.95
55,Poly(dimethylsiloxane),Homopolymer,Pentane,C5H12,,20700,,95300,,,,,,,,323.2,34.3,,,,41,6.12
55,Poly(dimethylsiloxane),Homopolymer,Pentane,C5H12,,20700,,95300,,,,,,,,333.2,26,,,,41,6.08
55,Poly(dimethylsiloxane),Homopolymer,Pentane,C5H12,,20700,,95300,,,,,,,,343.2,19.8,,,,41,6.14
55,Poly(dimethylsiloxane),Homopolymer,Pentane,C5H12,,20700,,95300,,,,,,,,353.2,15.5,,,,41,6.16
55,Poly(dimethylsiloxane),Homopolymer,Pentane,C5H12,,30000,,,,,,,,,5,298.2,77.4,,,,63,6.17
55,Poly(dimethylsiloxane),Homopolymer,Pentane,C5H12,,89000,,,,,,,,,6,303,,,6.092,C,13,
55,Poly(dimethylsiloxane),Homopolymer,Pentane,C5H12,,150000,,609000,,,,,,,,298.2,81.01,,,,23,5.89
55,Poly(dimethylsiloxane),Homopolymer,Pentane,C5H12,,150000,,609000,,,,,,,,313.2,47.8,,,,23,5.98
55,Poly(dimethylsiloxane),Homopolymer,Pentane,C5H12,,208000,,580000,,,,,,,,303.2,,,5.964,C,41,
55,Poly(dimethylsiloxane),Homopolymer,Pentane,C5H12,,,,,,30000,,,,,,293.2,,0.48,,C,51,
55,Poly(dimethylsiloxane),Homopolymer,Pentane,C5H12,,,,,,500000,,,,,,298.2,74.76,,,,16,6.38
55,Poly(dimethylsiloxane),Homopolymer,Pentane,C5H12,,,,,,500000,,,,,,298.2,80.31,,,,23,5.94
55,Poly(dimethylsiloxane),Homopolymer,Pentane,C5H12,,,,,,500000,,,,,,298.2,,,5.96,C,36,
55,Poly(dimethylsiloxane),Homopolymer,Pentane,C5H12,,,,,,500000,,,,,,313.2,43.65,,,,16,6.55
55,Poly(dimethylsiloxane),Homopolymer,Pentane,C5H12,,,,,,500000,,,,,,313.2,46.79,,,,23,6.11
55,Poly(dimethylsiloxane),Homopolymer,Pentane,C5H12,,,,,,500000,,,,,,313.2,,,5.94,C,36,
55,Poly(dimethylsiloxane),Homopolymer,Pentane,C5H12,,,,,,500000,,,,,,328.2,27.43,,,,16,6.62
55,Poly(dimethylsiloxane),Homopolymer,Pentane,C5H12,,,,,,500000,,,,,,328.2,29.8,,,,23,6.1
55,Poly(dimethylsiloxane),Homopolymer,Pentane,C5H12,,,,,,500000,,,,,,328.2,,,6.12,C,36,
55,Poly(dimethylsiloxane),Homopolymer,Pentane,C5H12,,,,,,500000,,,,,,343.2,18.33,,,,16,6.64
55,Poly(dimethylsiloxane),Homopolymer,Pentane,C5H12,,,,,,500000,,,,,,343.2,,,6.24,C,36,
56,Poly(dimethylsiloxane),Homopolymer,Pentane,C5H12,,,,,,600000,,,,,,328.2,29.7,,,,26,6.12
56,Poly(dimethylsiloxane),Homopolymer,Pentane,C5H12,,,,,,600000,,,,,,343.2,19.5,,,,26,6.24
56,Poly(dimethylsiloxane),Homopolymer,Benzene,C6H6,,3700,,,,,,,,,,333.2,105.46,,,,24,5.41
56,Poly(dimethylsiloxane),Homopolymer,Benzene,C6H6,,3770,,,,,,,,,7,333.2,95.6,,,,12,5.97
56,Poly(dimethylsiloxane),Homopolymer,Benzene,C6H6,,17000,,20400,,,,,,,,333.2,95.3,,,,12,5.99
56,Poly(dimethylsiloxane),Homopolymer,Benzene,C6H6,,30000,,90000,,,,,,,,313.2,191.4,,,,12,6.33
56,Poly(dimethylsiloxane),Homopolymer,Benzene,C6H6,,30000,,90000,,,,,,,,328.2,109.2,,,,12,6.24
56,Poly(dimethylsiloxane),Homopolymer,Benzene,C6H6,,30000,,90000,,,,,,,,333.2,91.6,,,,12,6.23
56,Poly(dimethylsiloxane),Homopolymer,Benzene,C6H6,,30000,,90000,,,,,,,,353.2,48.8,,,,12,6.12
56,Poly(dimethylsiloxane),Homopolymer,Benzene,C6H6,,30000,,90000,,,,,,,,373.2,28.3,,,,12,6.03
56,Poly(dimethylsiloxane),Homopolymer,Benzene,C6H6,,30000,,90000,,,,,,,,393.2,17.7,,,,12,5.92
56,Poly(dimethylsiloxane),Homopolymer,Benzene,C6H6,,30000,,90000,,,,,,,,413.2,11.6,,,,12,5.89
56,Poly(dimethylsiloxane),Homopolymer,Benzene,C6H6,,30000,,90000,,,,,,,,433.2,8.1,,,,12,5.8
56,Poly(dimethylsiloxane),Homopolymer,Benzene,C6H6,,30000,,90000,,,,,,,,453.2,5.8,,,,12,5.81
56,Poly(dimethylsiloxane),Homopolymer,Benzene,C6H6,,30000,,,,,,,,,5,298.2,359.1,,,,63,6.46
56,Poly(dimethylsiloxane),Homopolymer,Benzene,C6H6,,89000,,,,,,,,,6,303,,,6.404,C,13,
56,Poly(dimethylsiloxane),Homopolymer,Benzene,C6H6,,150000,,609000,,,,,,,,298.2,380,,,,23,6.1
56,Poly(dimethylsiloxane),Homopolymer,Benzene,C6H6,,150000,,609000,,,,,,,,313.2,200,,,,23,6.06
56,Poly(dimethylsiloxane),Homopolymer,Benzene,C6H6,,,,,,500000,,,,,,298.2,340.4,,,,16,6.81
56,Poly(dimethylsiloxane),Homopolymer,Benzene,C6H6,,,,,,500000,,,,,,298.2,370.2,,,,23,6.26
56,Poly(dimethylsiloxane),Homopolymer,Benzene,C6H6,,,,,,500000,,,,,,298.2,,,6.3,C,36,
56,Poly(dimethylsiloxane),Homopolymer,Benzene,C6H6,,,,,,500000,,,,,,313.2,181.2,,,,16,6.69
56,Poly(dimethylsiloxane),Homopolymer,Benzene,C6H6,,,,,,500000,,,,,,313.2,198.9,,,,23,6.09
56,Poly(dimethylsiloxane),Homopolymer,Benzene,C6H6,,,,,,500000,,,,,,313.2,,,6.08,C,36,
56,Poly(dimethylsiloxane),Homopolymer,Benzene,C6H6,,,,,,500000,,,,,,328.2,105.4,,,,16,6.47
56,Poly(dimethylsiloxane),Homopolymer,Benzene,C6H6,,,,,,500000,,,,,,328.2,112.5,,,,23,6.06
56,Poly(dimethylsiloxane),Homopolymer,Benzene,C6H6,,,,,,500000,,,,,,328.2,,,6.1,C,36,
57,Poly(dimethylsiloxane),Homopolymer,Benzene,C6H6,,,,,,500000,,,,,,343.2,63.43,,,,16,6.43
57,Poly(dimethylsiloxane),Homopolymer,Benzene,C6H6,,,,,,500000,,,,,,343.2,,,5.97,C,36,
57,Poly(dimethylsiloxane),Homopolymer,Benzene,C6H6,,,,,,600000,,,,,,328.2,111.6,,,,26,6.11
57,Poly(dimethylsiloxane),Homopolymer,Benzene,C6H6,,,,,,600000,,,,,,343.2,68.5,,,,26,5.95
57,Poly(dimethylsiloxane),Homopolymer,Cyclohexane,C6H12,,3700,,,,,,,,,,333.2,106.14,,,,24,5
57,Poly(dimethylsiloxane),Homopolymer,Cyclohexane,C6H12,,15100,,28700,,,,,,,,313.2,209.8,,,,41,5.26
57,Poly(dimethylsiloxane),Homopolymer,Cyclohexane,C6H12,,15100,,28700,,,,,,,,323.2,144,,,,41,5.24
57,Poly(dimethylsiloxane),Homopolymer,Cyclohexane,C6H12,,15100,,28700,,,,,,,,333.2,101.4,,,,41,5.23
57,Poly(dimethylsiloxane),Homopolymer,Cyclohexane,C6H12,,15100,,28700,,,,,,,,343.2,73.8,,,,41,5.19
57,Poly(dimethylsiloxane),Homopolymer,Cyclohexane,C6H12,,15100,,28700,,,,,,,,353.2,54.7,,,,41,5.17
57,Poly(dimethylsiloxane),Homopolymer,Cyclohexane,C6H12,,20700,,95300,,,,,,,,303.2,,,5.227,C,41,
57,Poly(dimethylsiloxane),Homopolymer,Cyclohexane,C6H12,,20700,,95300,,,,,,,,313.2,211.6,,,,41,5.21
57,Poly(dimethylsiloxane),Homopolymer,Cyclohexane,C6H12,,20700,,95300,,,,,,,,323.2,145.4,,,,41,5.19
57,Poly(dimethylsiloxane),Homopolymer,Cyclohexane,C6H12,,20700,,95300,,,,,,,,333.2,102.5,,,,41,5.18
57,Poly(dimethylsiloxane),Homopolymer,Cyclohexane,C6H12,,20700,,95300,,,,,,,,343.2,74.3,,,,41,5.15
57,Poly(dimethylsiloxane),Homopolymer,Cyclohexane,C6H12,,20700,,95300,,,,,,,,353.2,55.1,,,,41,5.13
57,Poly(dimethylsiloxane),Homopolymer,Cyclohexane,C6H12,,30000,,90000,,,,,,,,328.2,121,,,,12,5.21
57,Poly(dimethylsiloxane),Homopolymer,Cyclohexane,C6H12,,30000,,90000,,,,,,,,333.2,101.2,,,,12,5.24
57,Poly(dimethylsiloxane),Homopolymer,Cyclohexane,C6H12,,30000,,90000,,,,,,,,353.2,52.9,,,,12,5.34
57,Poly(dimethylsiloxane),Homopolymer,Cyclohexane,C6H12,,30000,,90000,,,,,,,,373.2,30.3,,,,12,5.41
57,Poly(dimethylsiloxane),Homopolymer,Cyclohexane,C6H12,,30000,,90000,,,,,,,,393.2,18.7,,,,12,5.44
57,Poly(dimethylsiloxane),Homopolymer,Cyclohexane,C6H12,,30000,,90000,,,,,,,,413.2,12.2,,,,12,5.49
57,Poly(dimethylsiloxane),Homopolymer,Cyclohexane,C6H12,,30000,,90000,,,,,,,,433.2,8.4,,,,12,5.51
57,Poly(dimethylsiloxane),Homopolymer,Cyclohexane,C6H12,,30000,,90000,,,,,,,,453.2,6.1,,,,12,5.47
57,Poly(dimethylsiloxane),Homopolymer,Cyclohexane,C6H12,,30000,,,,,,,,,5,298.2,390.4,,,,63,5.3
57,Poly(dimethylsiloxane),Homopolymer,Cyclohexane,C6H12,,89000,,,,,,,,,6,303,,,5.378,C,13,
57,Poly(dimethylsiloxane),Homopolymer,Cyclohexane,C6H12,,208000,,580000,,,,,,,,303.2,,,5.208,C,41,
58,Poly(dimethylsiloxane),Homopolymer,Cyclohexane,C6H12,,,,,,500000,,,,,,298.2,,,5.18,C,36,
58,Poly(dimethylsiloxane),Homopolymer,Cyclohexane,C6H12,,,,,,500000,,,,,,313.2,,,5.19,C,36,
58,Poly(dimethylsiloxane),Homopolymer,Cyclohexane,C6H12,,,,,,500000,,,,,,328.2,,,5.19,C,36,
58,Poly(dimethylsiloxane),Homopolymer,Cyclohexane,C6H12,,,,,,500000,,,,,,343.2,,,5.23,C,36,
58,Poly(dimethylsiloxane),Homopolymer,Cyclohexane,C6H12,,,,,,600000,,,,,,328.2,122.3,,,,26,5.15
58,Poly(dimethylsiloxane),Homopolymer,Cyclohexane,C6H12,,,,,,600000,,,,,,343.2,73.5,,,,26,5.21
58,Poly(dimethylsiloxane),Homopolymer,Hexane,C6H14,,3700,,,,,,,,,,333.2,60.91,,,,24,5.92
58,Poly(dimethylsiloxane),Homopolymer,Hexane,C6H14,,3770,,,,,,,,,7,333.2,59.1,,,,12,6.1
58,Poly(dimethylsiloxane),Homopolymer,Hexane,C6H14,,15100,,28700,,,,,,,,313.2,121.2,,,,41,5.96
58,Poly(dimethylsiloxane),Homopolymer,Hexane,C6H14,,15100,,28700,,,,,,,,323.2,84.1,,,,41,5.98
58,Poly(dimethylsiloxane),Homopolymer,Hexane,C6H14,,15100,,28700,,,,,,,,333.2,59.9,,,,41,6.02
58,Poly(dimethylsiloxane),Homopolymer,Hexane,C6H14,,15100,,28700,,,,,,,,343.2,44,,,,41,6.03
58,Poly(dimethylsiloxane),Homopolymer,Hexane,C6H14,,15100,,28700,,,,,,,,353.2,32.9,,,,41,6.06
58,Poly(dimethylsiloxane),Homopolymer,Hexane,C6H14,,17000,,20400,,,,,,,,333.2,61,,,,12,5.91
58,Poly(dimethylsiloxane),Homopolymer,Hexane,C6H14,,20700,,95300,,,,,,,,303.2,,,5.854,C,41,
58,Poly(dimethylsiloxane),Homopolymer,Hexane,C6H14,,20700,,95300,,,,,,,,313.2,122.2,,,,41,5.91
58,Poly(dimethylsiloxane),Homopolymer,Hexane,C6H14,,20700,,95300,,,,,,,,323.2,84.9,,,,41,5.93
58,Poly(dimethylsiloxane),Homopolymer,Hexane,C6H14,,20700,,95300,,,,,,,,333.2,60.6,,,,41,5.95
58,Poly(dimethylsiloxane),Homopolymer,Hexane,C6H14,,20700,,95300,,,,,,,,343.2,44.3,,,,41,5.98
58,Poly(dimethylsiloxane),Homopolymer,Hexane,C6H14,,20700,,95300,,,,,,,,353.2,33.1,,,,41,6.02
58,Poly(dimethylsiloxane),Homopolymer,Hexane,C6H14,,30000,,90000,,,,,,,,313.2,120.8,,,,12,5.98
58,Poly(dimethylsiloxane),Homopolymer,Hexane,C6H14,,30000,,90000,,,,,,,,328.2,70.7,,,,12,6.01
58,Poly(dimethylsiloxane),Homopolymer,Hexane,C6H14,,30000,,90000,,,,,,,,333.2,59.9,,,,12,6.02
58,Poly(dimethylsiloxane),Homopolymer,Hexane,C6H14,,30000,,90000,,,,,,,,353.2,32.4,,,,12,6.15
58,Poly(dimethylsiloxane),Homopolymer,Hexane,C6H14,,30000,,90000,,,,,,,,373.2,18.9,,,,12,6.32
58,Poly(dimethylsiloxane),Homopolymer,Hexane,C6H14,,30000,,90000,,,,,,,,393.2,11.7,,,,12,6.53
58,Poly(dimethylsiloxane),Homopolymer,Hexane,C6H14,,30000,,90000,,,,,,,,413.2,7.7,,,,12,6.71
59,Poly(dimethylsiloxane),Homopolymer,Hexane,C6H14,,30000,,,,,,,,,5,298.2,219.5,,,,63,6
59,Poly(dimethylsiloxane),Homopolymer,Hexane,C6H14,,89000,,,,,,,,,6,303,,,6.023,C,13,
59,Poly(dimethylsiloxane),Homopolymer,Hexane,C6H14,,150000,,609000,,,,,,,,298.2,230.4,,,,23,5.72
59,Poly(dimethylsiloxane),Homopolymer,Hexane,C6H14,,150000,,609000,,,,,,,,313.2,124.6,,,,23,5.79
59,Poly(dimethylsiloxane),Homopolymer,Hexane,C6H14,,208000,,580000,,,,,,,,303.2,,,5.863,C,41,
59,Poly(dimethylsiloxane),Homopolymer,Hexane,C6H14,,,,,,30000,,,,,,293.2,,0.5,,C,51,
59,Poly(dimethylsiloxane),Homopolymer,Hexane,C6H14,,,,,,500000,,,,,,298.2,211.1,,,,16,6.24
59,Poly(dimethylsiloxane),Homopolymer,Hexane,C6H14,,,,,,500000,,,,,,298.2,225,,,,23,5.85
59,Poly(dimethylsiloxane),Homopolymer,Hexane,C6H14,,,,,,500000,,,,,,298.2,,,5.86,C,36,
59,Poly(dimethylsiloxane),Homopolymer,Hexane,C6H14,,,,,,500000,,,,,,313.2,114.8,,,,16,6.29
59,Poly(dimethylsiloxane),Homopolymer,Hexane,C6H14,,,,,,500000,,,,,,313.2,122.5,,,,23,5.89
59,Poly(dimethylsiloxane),Homopolymer,Hexane,C6H14,,,,,,500000,,,,,,313.2,,,5.82,C,36,
59,Poly(dimethylsiloxane),Homopolymer,Hexane,C6H14,,,,,,500000,,,,,,328.2,66.45,,,,16,6.39
59,Poly(dimethylsiloxane),Homopolymer,Hexane,C6H14,,,,,,500000,,,,,,328.2,70.5,,,,23,6.02
59,Poly(dimethylsiloxane),Homopolymer,Hexane,C6H14,,,,,,500000,,,,,,328.2,,,5.89,C,36,
59,Poly(dimethylsiloxane),Homopolymer,Hexane,C6H14,,,,,,500000,,,,,,343.2,41.05,,,,16,6.46
59,Poly(dimethylsiloxane),Homopolymer,Hexane,C6H14,,,,,,500000,,,,,,343.2,,,5.94,C,36,
59,Poly(dimethylsiloxane),Homopolymer,Hexane,C6H14,,,,,,600000,,,,,,328.2,72.8,,,,26,5.83
59,Poly(dimethylsiloxane),Homopolymer,Hexane,C6H14,,,,,,600000,,,,,,343.2,44.4,,,,26,5.97
59,Poly(dimethylsiloxane),Homopolymer,"Pentane, 2-methyl",C6H14,,3700,,,,,,,,,,333.2,46.96,,,,24,5.89
59,Poly(dimethylsiloxane),Homopolymer,"Pentane, 2-methyl",C6H14,,,,,,500000,,,,,,298.2,149.9,,,,16,6.38
59,Poly(dimethylsiloxane),Homopolymer,"Pentane, 2-methyl",C6H14,,,,,,500000,,,,,,298.2,,,5.83,C,36,
59,Poly(dimethylsiloxane),Homopolymer,"Pentane, 2-methyl",C6H14,,,,,,500000,,,,,,313.2,83.9,,,,16,6.42
59,Poly(dimethylsiloxane),Homopolymer,"Pentane, 2-methyl",C6H14,,,,,,500000,,,,,,313.2,,,5.82,C,36,
59,Poly(dimethylsiloxane),Homopolymer,"Pentane, 2-methyl",C6H14,,,,,,500000,,,,,,328.2,51.63,,,,16,6.27
59,Poly(dimethylsiloxane),Homopolymer,"Pentane, 2-methyl",C6H14,,,,,,500000,,,,,,328.2,,,5.87,C,36,
59,Poly(dimethylsiloxane),Homopolymer,"Pentane, 2-methyl",C6H14,,,,,,500000,,,,,,343.2,32.21,,,,16,6.39
60,Poly(dimethylsiloxane),Homopolymer,"Pentane, 2-methyl",C6H14,,,,,,500000,,,,,,343.2,,,5.84,C,36,
60,Poly(dimethylsiloxane),Homopolymer,"Pentane, 3-methyl",C6H14,,3700,,,,,,,,,,333.2,52.65,,,,24,5.76
60,Poly(dimethylsiloxane),Homopolymer,"Disiloxane, hexamethyl",C6H18OSi2,,,,,,500000,,,,,,298.2,,,4.26,C,36,
60,Poly(dimethylsiloxane),Homopolymer,"Disiloxane, hexamethyl",C6H18OSi2,,,,,,500000,,,,,,313.2,,,4.3,C,36,
60,Poly(dimethylsiloxane),Homopolymer,"Disiloxane, hexamethyl",C6H18OSi2,,,,,,500000,,,,,,328.2,,,4.39,C,36,
60,Poly(dimethylsiloxane),Homopolymer,"Disiloxane, hexamethyl",C6H18OSi2,,,,,,500000,,,,,,343.2,,,4.5,C,36,
60,Poly(dimethylsiloxane),Homopolymer,Toluene,C7H8,,30000,,90000,,,,,,,,328.2,259.9,,,,12,6.35
60,Poly(dimethylsiloxane),Homopolymer,Toluene,C7H8,,30000,,90000,,,,,,,,333.2,212.8,,,,12,6.34
60,Poly(dimethylsiloxane),Homopolymer,Toluene,C7H8,,30000,,90000,,,,,,,,353.2,104.1,,,,12,6.24
60,Poly(dimethylsiloxane),Homopolymer,Toluene,C7H8,,30000,,90000,,,,,,,,373.2,56.2,,,,12,6.12
60,Poly(dimethylsiloxane),Homopolymer,Toluene,C7H8,,30000,,90000,,,,,,,,393.2,32.7,,,,12,6.04
60,Poly(dimethylsiloxane),Homopolymer,Toluene,C7H8,,30000,,90000,,,,,,,,413.2,20.3,,,,12,5.97
60,Poly(dimethylsiloxane),Homopolymer,Toluene,C7H8,,30000,,90000,,,,,,,,433.2,13.3,,,,12,5.93
60,Poly(dimethylsiloxane),Homopolymer,Toluene,C7H8,,30000,,90000,,,,,,,,453.2,10.9,,,,12,4.95
60,Poly(dimethylsiloxane),Homopolymer,Toluene,C7H8,,30000,,,,,,,,,5,298.2,1053.4,,,,63,6.21
60,Poly(dimethylsiloxane),Homopolymer,Toluene,C7H8,,89000,,,,,,,,,6,303,,,6.457,C,13,
60,Poly(dimethylsiloxane),Homopolymer,Toluene,C7H8,,150000,,609000,,,,,,,,313.2,516.8,,,,23,6.11
60,Poly(dimethylsiloxane),Homopolymer,Toluene,C7H8,,,,,,500000,,,,,,298.2,959.6,,,,16,6.81
60,Poly(dimethylsiloxane),Homopolymer,Toluene,C7H8,,,,,,500000,,,,,,298.2,1032,,,,23,6.33
60,Poly(dimethylsiloxane),Homopolymer,Toluene,C7H8,,,,,,500000,,,,,,298.2,,,6.31,C,36,
60,Poly(dimethylsiloxane),Homopolymer,Toluene,C7H8,,,,,,500000,,,,,,313.2,463.7,,,,16,6.8
60,Poly(dimethylsiloxane),Homopolymer,Toluene,C7H8,,,,,,500000,,,,,,313.2,515.8,,,,23,6.12
60,Poly(dimethylsiloxane),Homopolymer,Toluene,C7H8,,,,,,500000,,,,,,313.2,,,6.12,C,36,
61,Poly(dimethylsiloxane),Homopolymer,Toluene,C7H8,,,,,,500000,,,,,,328.2,251.4,,,,16,6.56
61,Poly(dimethylsiloxane),Homopolymer,Toluene,C7H8,,,,,,500000,,,,,,328.2,269.2,,,,23,6.13
61,Poly(dimethylsiloxane),Homopolymer,Toluene,C7H8,,,,,,500000,,,,,,328.2,,,6.13,C,36,
61,Poly(dimethylsiloxane),Homopolymer,Toluene,C7H8,,,,,,500000,,,,,,343.2,141.3,,,,16,6.54
61,Poly(dimethylsiloxane),Homopolymer,Toluene,C7H8,,,,,,500000,,,,,,343.2,,,6.05,C,36,
61,Poly(dimethylsiloxane),Homopolymer,Cycloheptane,C7H14,,,,,,500000,,,,,,298.2,,,5.59,C,36,
61,Poly(dimethylsiloxane),Homopolymer,Cycloheptane,C7H14,,,,,,500000,,,,,,313.2,,,5.44,C,36,
61,Poly(dimethylsiloxane),Homopolymer,Cycloheptane,C7H14,,,,,,500000,,,,,,328.2,,,5.43,C,36,
61,Poly(dimethylsiloxane),Homopolymer,Cycloheptane,C7H14,,,,,,500000,,,,,,343.2,,,5.39,C,36,
61,Poly(dimethylsiloxane),Homopolymer,"Cyclohexane, methyl",C7H14,,89000,,,,,,,,,6,303,,,4.712,C,13,
61,Poly(dimethylsiloxane),Homopolymer,Heptane,C7H16,,3700,,,,,,,,,,333.2,144.3,,,,24,5.74
61,Poly(dimethylsiloxane),Homopolymer,Heptane,C7H16,,3770,,,,,,,,,7,333.2,131.6,,,,12,6.29