Page,Solute,Solute_type,Solvent,Solvent_formula,MN_symbol,MN,MW_symbol,MW,MV_symbol,MV,per composition,per substitution,Tg_symbol,Tg (K),Note,T (K),Vg (cm3/g),chi_inf,omega_inf,U/C,Ref,calc_omega_inf
185,Polystyrene,Homopolymer,Toluene,C7H8,,16510,,17500,,,,,,,43,452.5,8.79,,,,52,6.21
185,Polystyrene,Homopolymer,Toluene,C7H8,,16510,,17500,,,,,,,43,454.6,8.46,,,,52,6.22
185,Polystyrene,Homopolymer,Toluene,C7H8,,16510,,17500,,,,,,,43,463,7.31,,,,52,6.22
185,Polystyrene,Homopolymer,Toluene,C7H8,,16510,,17500,,,,,,,43,473.9,6.15,,,,52,6.18
185,Polystyrene,Homopolymer,Toluene,C7H8,,20000,,,,,,,,351,,435.5,9.52,,,,56,7.92
185,Polystyrene,Homopolymer,Toluene,C7H8,,20000,,,,,,,,351,,445,8.6,,,,56,7.29
185,Polystyrene,Homopolymer,Toluene,C7H8,,20000,,,,,,,,351,,492.9,4.41,,,,56,6.48
185,Polystyrene,Homopolymer,Toluene,C7H8,,20000,,,,,,,,351,,502.6,5.19,,,,56,4.82
185,Polystyrene,Homopolymer,Toluene,C7H8,,50660,,53700,,,,,,,47,413,,,4.87,C,11,
185,Polystyrene,Homopolymer,Toluene,C7H8,,50660,,53700,,,,,,,47,423,,,4.9,C,11,
185,Polystyrene,Homopolymer,Toluene,C7H8,,50660,,53700,,,,,,,47,433,,,4.93,C,11,
185,Polystyrene,Homopolymer,Toluene,C7H8,,50660,,53700,,,,,,,47,443,,,4.96,C,11,
185,Polystyrene,Homopolymer,Toluene,C7H8,,50660,,53700,,,,,,,47,453,,,4.99,C,11,
185,Polystyrene,Homopolymer,Toluene,C7H8,,50660,,53700,,,,,,,47,463,,,4.98,C,11,
186,Polystyrene,Homopolymer,Toluene,C7H8,,76000,,82000,,,,,,368.45,42,413.2,22.28,,,,86,5.44
186,Polystyrene,Homopolymer,Toluene,C7H8,,76000,,82000,,,,,,368.45,42,423.2,,,5.38,C,86,
186,Polystyrene,Homopolymer,Toluene,C7H8,,76000,,82000,,,,,,368.45,42,433.2,14.78,,,,86,5.34
186,Polystyrene,Homopolymer,Toluene,C7H8,,76000,,82000,,,,,,368.45,42,453.2,10.16,,,,86,5.31
186,Polystyrene,Homopolymer,Toluene,C7H8,,76000,,82000,,,,,,368.45,42,473.2,7.21,,,,86,5.34
186,Polystyrene,Homopolymer,Toluene,C7H8,,96200,,97600,,98200,,,,,40,396.5,,,4.52,U,21,4.78
186,Polystyrene,Homopolymer,Toluene,C7H8,,96200,,97600,,98200,,,,,40,420,,,4.43,U,21,4.8
186,Polystyrene,Homopolymer,Toluene,C7H8,,96200,,97600,,98200,,,,,40,447.5,,,4.24,U,21,4.78
186,Polystyrene,Homopolymer,Toluene,C7H8,,97000,,102800,,,,,,,,423.2,,,5.22,C,1,
186,Polystyrene,Homopolymer,Toluene,C7H8,,97000,,102800,,,,,,,,448.2,,,5.29,C,1,
186,Polystyrene,Homopolymer,Toluene,C7H8,,97000,,102800,,,,,,,,473.2,,,5.34,C,1,
186,Polystyrene,Homopolymer,Toluene,C7H8,,,,107000,,,,,,,49,440.5,10.34,,,,52,6.6
186,Polystyrene,Homopolymer,Toluene,C7H8,,,,107000,,,,,,,49,450.5,8.42,,,,52,6.72
186,Polystyrene,Homopolymer,Toluene,C7H8,,,,107000,,,,,,,49,460.8,6.99,,,,52,6.75
186,Polystyrene,Homopolymer,Toluene,C7H8,,,,107000,,,,,,,49,473.9,5.71,,,,52,6.66
186,Polystyrene,Homopolymer,Toluene,C7H8,,110000,,116600,,,,,,,,423,21.9,,,,17,4.45
186,Polystyrene,Homopolymer,Toluene,C7H8,,110000,,116600,,,,,,,,423.2,,,5.3,C,9,
186,Polystyrene,Homopolymer,Toluene,C7H8,,110000,,116600,,,,,,,,448,12.7,,,,17,4.67
186,Polystyrene,Homopolymer,Toluene,C7H8,,110000,,116600,,,,,,,,473,7.6,,,,17,5.08
186,Polystyrene,Homopolymer,Toluene,C7H8,,120000,,266000,,,,,,,,383.2,,,4.17,C,102,
186,Polystyrene,Homopolymer,Toluene,C7H8,,120000,,266000,,,,,,,,393.3,,,4.49,C,102,
186,Polystyrene,Homopolymer,Toluene,C7H8,,120000,,266000,,,,,,,,393.4,,,4.32,C,102,
186,Polystyrene,Homopolymer,Toluene,C7H8,,120000,,266000,,,,,,,,403.4,,,4.56,C,102,
186,Polystyrene,Homopolymer,Toluene,C7H8,,120000,,266000,,,,,,,,403.6,,,4.43,C,102,
186,Polystyrene,Homopolymer,Toluene,C7H8,,120000,,266000,,,,,,,,413.8,,,4.66,C,102,
186,Polystyrene,Homopolymer,Toluene,C7H8,,190000,,,,,,,,,,423.2,,,6.9,C,59,
186,Polystyrene,Homopolymer,Toluene,C7H8,,190000,,,,,,,,,,448.2,,,6.88,C,59,
186,Polystyrene,Homopolymer,Toluene,C7H8,,190000,,,,,,,,,,473.2,,,6.92,C,59,
186,Polystyrene,Homopolymer,Toluene,C7H8,,,,1800000,,,,,,,54,442.5,10.99,,,,52,5.98
187,Polystyrene,Homopolymer,Toluene,C7H8,,,,1800000,,,,,,,54,450.5,9.47,,,,52,5.98
187,Polystyrene,Homopolymer,Toluene,C7H8,,,,1800000,,,,,,,54,463,7.61,,,,52,5.97
187,Polystyrene,Homopolymer,Toluene,C7H8,,,,1800000,,,,,,,54,469.5,6.58,,,,52,6.2
187,Polystyrene,Homopolymer,Toluene,C7H8,,1780000,,2145000,,1890000,,,,,41,395.5,,,5.5,U,21,5.81
187,Polystyrene,Homopolymer,Toluene,C7H8,,1780000,,2145000,,1890000,,,,,41,420.9,,,4.95,U,21,5.37
187,Polystyrene,Homopolymer,Toluene,C7H8,,1780000,,2145000,,1890000,,,,,41,445.9,,,4.56,U,21,5.12
187,Polystyrene,Homopolymer,Toluene,C7H8,,,,,,,,,,,,298.4,,0.868,,C,32,
187,Polystyrene,Homopolymer,Toluene,C7H8,,,,,,,,,,,,323.7,,0.42,,C,32,
187,Polystyrene,Homopolymer,Toluene,C7H8,,,,,,,,,,,,345.6,,0.327,,C,32,
187,Polystyrene,Homopolymer,Toluene,C7H8,,,,,,,,,,,,363.7,,0.277,,C,32,
187,Polystyrene,Homopolymer,Toluene,C7H8,,,,,,,,,,,,383.7,,0.311,,C,32,
187,Polystyrene,Homopolymer,Toluene,C7H8,,,,,,,,,,,,418.7,,0.723,,C,32,
187,Polystyrene,Homopolymer,"Benzene, methoxy",C7H8O,,,,2200,,,,,,,45,423.7,49,,,,52,4.8
187,Polystyrene,Homopolymer,"Benzene, methoxy",C7H8O,,,,2200,,,,,,,45,432.9,37.16,,,,52,4.99
187,Polystyrene,Homopolymer,"Benzene, methoxy",C7H8O,,,,2200,,,,,,,45,444.4,29.57,,,,52,4.75
187,Polystyrene,Homopolymer,"Benzene, methoxy",C7H8O,,,,2200,,,,,,,45,452.5,23.86,,,,52,4.89
187,Polystyrene,Homopolymer,"Benzene, methoxy",C7H8O,,,,4000,,,,,,,46,427.4,35.66,,,,52,5.98
187,Polystyrene,Homopolymer,"Benzene, methoxy",C7H8O,,,,4000,,,,,,,46,432.9,30.19,,,,52,6.14
187,Polystyrene,Homopolymer,"Benzene, methoxy",C7H8O,,,,4000,,,,,,,46,442.5,24.53,,,,52,5.98
187,Polystyrene,Homopolymer,"Benzene, methoxy",C7H8O,,,,4000,,,,,,,46,450.5,20.33,,,,52,6
187,Polystyrene,Homopolymer,"Benzene, methoxy",C7H8O,,16510,,17500,,,,,,,43,442.5,28.71,,,,52,5.11
187,Polystyrene,Homopolymer,"Benzene, methoxy",C7H8O,,16510,,17500,,,,,,,43,452.5,23.4,,,,52,4.99
187,Polystyrene,Homopolymer,"Benzene, methoxy",C7H8O,,16510,,17500,,,,,,,43,465.1,17.59,,,,52,5.07
187,Polystyrene,Homopolymer,"Benzene, methoxy",C7H8O,,16510,,17500,,,,,,,43,469.5,15.68,,,,52,5.2
187,Polystyrene,Homopolymer,"Benzene, methoxy",C7H8O,,,,107000,,,,,,,49,440.5,27.42,,,,52,5.61
187,Polystyrene,Homopolymer,"Benzene, methoxy",C7H8O,,,,107000,,,,,,,49,450.5,21.37,,,,52,5.71
187,Polystyrene,Homopolymer,"Benzene, methoxy",C7H8O,,,,107000,,,,,,,49,460.8,17.02,,,,52,5.73
188,Polystyrene,Homopolymer,"Benzene, methoxy",C7H8O,,,,107000,,,,,,,49,471.7,13.93,,,,52,5.6
188,Polystyrene,Homopolymer,"Benzene, methoxy",C7H8O,,,,1800000,,,,,,,54,432.9,38.11,,,,52,4.86
188,Polystyrene,Homopolymer,"Benzene, methoxy",C7H8O,,,,1800000,,,,,,,54,442.5,29.02,,,,52,5.06
188,Polystyrene,Homopolymer,"Benzene, methoxy",C7H8O,,,,1800000,,,,,,,54,460.8,19.05,,,,52,5.12
188,Polystyrene,Homopolymer,"Benzene, methoxy",C7H8O,,,,1800000,,,,,,,54,471.7,15.59,,,,52,5
188,Polystyrene,Homopolymer,"Toluene, alpha-hydroxy",C7H8O,,20000,,,,,,,,351,,435.5,60.17,,,,56,12.6
188,Polystyrene,Homopolymer,"Toluene, alpha-hydroxy",C7H8O,,20000,,,,,,,,351,,445,47.37,,,,56,11.7
188,Polystyrene,Homopolymer,"Toluene, alpha-hydroxy",C7H8O,,20000,,,,,,,,351,,492.9,17.87,,,,56,8.08
188,Polystyrene,Homopolymer,"Toluene, alpha-hydroxy",C7H8O,,20000,,,,,,,,351,,502.6,15.61,,,,56,7.36
188,Polystyrene,Homopolymer,Heptane,C7H16,a,600,a,660,,,,,,,,313.2,,0.95,,C,31,
188,Polystyrene,Homopolymer,Heptane,C7H16,,20000,,,,,,,,351,,435.5,2.64,,,,56,20.8
188,Polystyrene,Homopolymer,Heptane,C7H16,,20000,,,,,,,,351,,445,2.62,,,,56,17.7
188,Polystyrene,Homopolymer,Heptane,C7H16,,20000,,,,,,,,351,,492.9,1.04,,,,56,21.7
188,Polystyrene,Homopolymer,Heptane,C7H16,,20000,,,,,,,,351,,502.6,2.32,,,,56,8.63
188,Polystyrene,Homopolymer,Heptane,C7H16,,50660,,53700,,,,,,,47,403,,,11.53,C,11,
188,Polystyrene,Homopolymer,Heptane,C7H16,,50660,,53700,,,,,,,47,418,,,10.91,C,11,
188,Polystyrene,Homopolymer,Heptane,C7H16,,50660,,53700,,,,,,,47,423,,,10.76,C,11,
188,Polystyrene,Homopolymer,Heptane,C7H16,,50660,,53700,,,,,,,47,433,,,10.26,C,11,
188,Polystyrene,Homopolymer,Heptane,C7H16,,50660,,53700,,,,,,,47,443,,,9.84,C,11,
188,Polystyrene,Homopolymer,Heptane,C7H16,,50660,,53700,,,,,,,47,448,,,9.8,C,11,
188,Polystyrene,Homopolymer,Heptane,C7H16,,50660,,53700,,,,,,,47,463,,,9.43,C,11,
188,Polystyrene,Homopolymer,Heptane,C7H16,,76000,,82000,,,,,,368.45,42,413.2,5.08,,,,86,16.9
188,Polystyrene,Homopolymer,Heptane,C7H16,,76000,,82000,,,,,,368.45,42,423.2,,,15.64,C,86,
188,Polystyrene,Homopolymer,Heptane,C7H16,,76000,,82000,,,,,,368.45,42,433.2,3.92,,,,86,14.7
188,Polystyrene,Homopolymer,Heptane,C7H16,,76000,,82000,,,,,,368.45,42,453.2,3.09,,,,86,13.1
189,Polystyrene,Homopolymer,Heptane,C7H16,,76000,,82000,,,,,,368.45,42,473.2,2.49,,,,86,11.9
189,Polystyrene,Homopolymer,Heptane,C7H16,,110000,,116600,,,,,,,,448,4.8,,,,17,9.18
189,Polystyrene,Homopolymer,Heptane,C7H16,,110000,,116600,,,,,,,,473,3.12,,,,17,9.51
189,Polystyrene,Homopolymer,Heptane,C7H16,,110000,,116600,,,,,,,,498,2.18,,,,17,9.71
189,Polystyrene,Homopolymer,Heptane,C7H16,,190000,,,,,,,,,,423.2,,,18.5,C,59,
189,Polystyrene,Homopolymer,Heptane,C7H16,,190000,,,,,,,,,,448.2,,,18.4,C,59,
189,Polystyrene,Homopolymer,Heptane,C7H16,,190000,,,,,,,,,,473.2,,,19,C,59,
189,Polystyrene,Homopolymer,Styrene,C8H8,,3524,,3876,,3600,,,,,,400,,,3.86,U,21,3.97
189,Polystyrene,Homopolymer,Styrene,C8H8,,3524,,3876,,3600,,,,,,421.6,,,3.66,U,21,3.82
189,Polystyrene,Homopolymer,Styrene,C8H8,,3524,,3876,,3600,,,,,,444.8,,,3.51,U,21,3.74
189,Polystyrene,Homopolymer,Styrene,C8H8,,96200,,97600,,98200,,,,,40,396.5,,,4.08,U,21,4.19
189,Polystyrene,Homopolymer,Styrene,C8H8,,96200,,97600,,98200,,,,,40,420,,,4.16,U,21,4.33
189,Polystyrene,Homopolymer,Styrene,C8H8,,96200,,97600,,98200,,,,,40,447.5,,,3.98,U,21,4.25
189,Polystyrene,Homopolymer,Styrene,C8H8,,97000,,102800,,,,,,,,423.2,,,4.11,C,1,
189,Polystyrene,Homopolymer,Styrene,C8H8,,97000,,102800,,,,,,,,448.2,,,4.57,C,1,
189,Polystyrene,Homopolymer,Styrene,C8H8,,97000,,102800,,,,,,,,473.2,,,4.69,C,1,
189,Polystyrene,Homopolymer,Styrene,C8H8,,1780000,,2145000,,1890000,,,,,41,395.5,,,4.95,U,21,5.08
189,Polystyrene,Homopolymer,Styrene,C8H8,,1780000,,2145000,,1890000,,,,,41,420.9,,,4.51,U,21,4.7
189,Polystyrene,Homopolymer,Styrene,C8H8,,1780000,,2145000,,1890000,,,,,41,445.9,,,4.2,U,21,4.48
189,Polystyrene,Homopolymer,"Benzene, 1,2-dimethyl",C8H10,,3524,,3876,,3600,,,,,,400,,,3.7,U,21,3.83
189,Polystyrene,Homopolymer,"Benzene, 1,2-dimethyl",C8H10,,3524,,3876,,3600,,,,,,421.6,,,3.84,U,21,4.04
189,Polystyrene,Homopolymer,"Benzene, 1,2-dimethyl",C8H10,,3524,,3876,,3600,,,,,,444.8,,,3.71,U,21,3.98
189,Polystyrene,Homopolymer,"Benzene, 1,2-dimethyl",C8H10,,20000,,,,,,,,351,,435.5,15.27,,,,56,9.34
189,Polystyrene,Homopolymer,"Benzene, 1,2-dimethyl",C8H10,,20000,,,,,,,,351,,445,12.77,,,,56,9.02
189,Polystyrene,Homopolymer,"Benzene, 1,2-dimethyl",C8H10,,20000,,,,,,,,351,,492.9,5.17,,,,56,8.89
190,Polystyrene,Homopolymer,"Benzene, 1,2-dimethyl",C8H10,,20000,,,,,,,,351,,502.6,6.13,,,,56,6.4
190,Polystyrene,Homopolymer,"Benzene, 1,2-dimethyl",C8H10,,96200,,97600,,98200,,,,,40,396.5,,,4.74,U,21,4.89
190,Polystyrene,Homopolymer,"Benzene, 1,2-dimethyl",C8H10,,96200,,97600,,98200,,,,,40,420,,,4.42,U,21,4.64
190,Polystyrene,Homopolymer,"Benzene, 1,2-dimethyl",C8H10,,96200,,97600,,98200,,,,,40,447.5,,,4.15,U,21,4.46
190,Polystyrene,Homopolymer,"Benzene, 1,2-dimethyl",C8H10,,1780000,,2145000,,1890000,,,,,41,395.5,,,5.53,U,21,5.71
190,Polystyrene,Homopolymer,"Benzene, 1,2-dimethyl",C8H10,,1780000,,2145000,,1890000,,,,,41,420.9,,,4.94,U,21,5.19
190,Polystyrene,Homopolymer,"Benzene, 1,2-dimethyl",C8H10,,1780000,,2145000,,1890000,,,,,41,445.9,,,4.47,U,21,4.8
190,Polystyrene,Homopolymer,"Benzene, 1,3-dimethyl",C8H10,,3524,,3876,,3600,,,,,,400,,,4,U,21,4.16
190,Polystyrene,Homopolymer,"Benzene, 1,3-dimethyl",C8H10,,3524,,3876,,3600,,,,,,421.6,,,3.95,U,21,4.18
190,Polystyrene,Homopolymer,"Benzene, 1,3-dimethyl",C8H10,,3524,,3876,,3600,,,,,,444.8,,,3.87,U,21,4.18
190,Polystyrene,Homopolymer,"Benzene, 1,3-dimethyl",C8H10,,96200,,97600,,98200,,,,,40,396.5,,,4.83,U,21,5.01
190,Polystyrene,Homopolymer,"Benzene, 1,3-dimethyl",C8H10,,96200,,97600,,98200,,,,,40,420,,,4.7,U,21,4.96
190,Polystyrene,Homopolymer,"Benzene, 1,3-dimethyl",C8H10,,96200,,97600,,98200,,,,,40,447.5,,,4.4,U,21,4.77
190,Polystyrene,Homopolymer,"Benzene, 1,3-dimethyl",C8H10,,1780000,,2145000,,1890000,,,,,41,395.5,,,5.98,U,21,6.2
190,Polystyrene,Homopolymer,"Benzene, 1,3-dimethyl",C8H10,,1780000,,2145000,,1890000,,,,,41,420.9,,,5.22,U,21,5.52
190,Polystyrene,Homopolymer,"Benzene, 1,3-dimethyl",C8H10,,1780000,,2145000,,1890000,,,,,41,445.9,,,4.63,U,21,5.01
190,Polystyrene,Homopolymer,"Benzene, 1,4-dimethyl",C8H10,,3524,,3876,,3600,,,,,,400,,,4.17,U,21,4.34
190,Polystyrene,Homopolymer,"Benzene, 1,4-dimethyl",C8H10,,3524,,3876,,3600,,,,,,421.6,,,3.93,U,21,4.16
190,Polystyrene,Homopolymer,"Benzene, 1,4-dimethyl",C8H10,,3524,,3876,,3600,,,,,,444.8,,,3.88,U,21,4.19
190,Polystyrene,Homopolymer,"Benzene, 1,4-dimethyl",C8H10,,96200,,97600,,98200,,,,,40,396.5,,,4.68,U,21,4.86
190,Polystyrene,Homopolymer,"Benzene, 1,4-dimethyl",C8H10,,96200,,97600,,98200,,,,,40,420,,,4.55,U,21,4.81
190,Polystyrene,Homopolymer,"Benzene, 1,4-dimethyl",C8H10,,96200,,97600,,98200,,,,,40,447.5,,,4.44,U,21,4.81
190,Polystyrene,Homopolymer,"Benzene, 1,4-dimethyl",C8H10,,1780000,,2145000,,1890000,,,,,41,395.5,,,5.11,U,21,5.3
190,Polystyrene,Homopolymer,"Benzene, 1,4-dimethyl",C8H10,,1780000,,2145000,,1890000,,,,,41,420.9,,,5.16,U,21,5.46
190,Polystyrene,Homopolymer,"Benzene, 1,4-dimethyl",C8H10,,1780000,,2145000,,1890000,,,,,41,445.9,,,4.82,U,21,5.22
191,Polystyrene,Homopolymer,"Benzene, ethyl",C8H10,,,,2200,,,,,,,45,444.4,16.54,,,,52,5.88
191,Polystyrene,Homopolymer,"Benzene, ethyl",C8H10,,,,2200,,,,,,,45,452.5,14.08,,,,52,5.86
191,Polystyrene,Homopolymer,"Benzene, ethyl",C8H10,,,,2200,,,,,,,45,463,11.65,,,,52,5.77
191,Polystyrene,Homopolymer,"Benzene, ethyl",C8H10,,3524,,3876,,3600,,,,,,400,,,3.95,U,21,4.11
191,Polystyrene,Homopolymer,"Benzene, ethyl",C8H10,,3524,,3876,,3600,,,,,,421.6,,,3.97,U,21,4.2
191,Polystyrene,Homopolymer,"Benzene, ethyl",C8H10,,3524,,3876,,3600,,,,,,444.8,,,3.72,U,21,4.04
191,Polystyrene,Homopolymer,"Benzene, ethyl",C8H10,,,,4000,,,,,,,46,444.4,17.2,,,,52,5.66
191,Polystyrene,Homopolymer,"Benzene, ethyl",C8H10,,,,4000,,,,,,,46,454.6,13.76,,,,52,5.75
191,Polystyrene,Homopolymer,"Benzene, ethyl",C8H10,,,,4000,,,,,,,46,463,12,,,,52,5.61
191,Polystyrene,Homopolymer,"Benzene, ethyl",C8H10,,,,4000,,,,,,,46,463.5,10.71,,,,52,6.22
191,Polystyrene,Homopolymer,"Benzene, ethyl",C8H10,,,,4000,,,,,,,46,471.7,10.12,,,,52,5.67
191,Polystyrene,Homopolymer,"Benzene, ethyl",C8H10,,16510,,17500,,,,,,,43,423,,,4.76,C,38,
191,Polystyrene,Homopolymer,"Benzene, ethyl",C8H10,,16510,,17500,,,,,,,43,442.5,16.56,,,,52,6.12
191,Polystyrene,Homopolymer,"Benzene, ethyl",C8H10,,16510,,17500,,,,,,,43,452.5,13.79,,,,52,5.98
191,Polystyrene,Homopolymer,"Benzene, ethyl",C8H10,,16510,,17500,,,,,,,43,465.1,10.79,,,,52,5.99
191,Polystyrene,Homopolymer,"Benzene, ethyl",C8H10,,16510,,17500,,,,,,,43,469.5,9.75,,,,52,6.12
191,Polystyrene,Homopolymer,"Benzene, ethyl",C8H10,,50660,,53700,,,,,,,47,413,,,5.01,C,11,
191,Polystyrene,Homopolymer,"Benzene, ethyl",C8H10,,50660,,53700,,,,,,,47,423,,,5.01,C,11,
191,Polystyrene,Homopolymer,"Benzene, ethyl",C8H10,,50660,,53700,,,,,,,47,433,,,5.02,C,11,
191,Polystyrene,Homopolymer,"Benzene, ethyl",C8H10,,50660,,53700,,,,,,,47,443,,,5.04,C,11,
191,Polystyrene,Homopolymer,"Benzene, ethyl",C8H10,,50660,,53700,,,,,,,47,453,,,5.04,C,11,
191,Polystyrene,Homopolymer,"Benzene, ethyl",C8H10,,50660,,53700,,,,,,,47,463,,,5.06,C,11,
191,Polystyrene,Homopolymer,"Benzene, ethyl",C8H10,,76000,,82000,,,,,,368.45,42,413.2,36.13,,,,86,5.54
191,Polystyrene,Homopolymer,"Benzene, ethyl",C8H10,,76000,,82000,,,,,,368.45,42,423.2,,,5.5,C,86,
191,Polystyrene,Homopolymer,"Benzene, ethyl",C8H10,,76000,,82000,,,,,,368.45,42,433.2,22.72,,,,86,5.47
191,Polystyrene,Homopolymer,"Benzene, ethyl",C8H10,,76000,,82000,,,,,,368.45,42,453.2,14.88,,,,86,5.47
191,Polystyrene,Homopolymer,"Benzene, ethyl",C8H10,,76000,,82000,,,,,,368.45,42,473.2,10.1,,,,86,5.53
191,Polystyrene,Homopolymer,"Benzene, ethyl",C8H10,,96200,,97600,,98200,,,,,40,396.5,,,4.61,U,21,4.78
192,Polystyrene,Homopolymer,"Benzene, ethyl",C8H10,,96200,,97600,,98200,,,,,40,420,,,4.51,U,21,4.77
192,Polystyrene,Homopolymer,"Benzene, ethyl",C8H10,,96200,,97600,,98200,,,,,40,447.5,,,4.31,U,21,4.69
192,Polystyrene,Homopolymer,"Benzene, ethyl",C8H10,,97000,,102800,,,,,,,,423.2,,,4.96,C,1,
192,Polystyrene,Homopolymer,"Benzene, ethyl",C8H10,,97000,,102800,,,,,,,,448.2,,,5.47,C,1,
192,Polystyrene,Homopolymer,"Benzene, ethyl",C8H10,,97000,,102800,,,,,,,,473.2,,,5.67,C,1,
192,Polystyrene,Homopolymer,"Benzene, ethyl",C8H10,,,,107000,,,,,,,49,440.5,15.55,,,,52,6.8
192,Polystyrene,Homopolymer,"Benzene, ethyl",C8H10,,,,107000,,,,,,,49,442.5,14.76,,,,52,6.86
192,Polystyrene,Homopolymer,"Benzene, ethyl",C8H10,,,,107000,,,,,,,49,452.5,12.38,,,,52,6.66
192,Polystyrene,Homopolymer,"Benzene, ethyl",C8H10,,,,107000,,,,,,,49,460.8,10.26,,,,52,6.83
192,Polystyrene,Homopolymer,"Benzene, ethyl",C8H10,,,,107000,,,,,,,49,471.7,8.61,,,,52,6.66
192,Polystyrene,Homopolymer,"Benzene, ethyl",C8H10,,120000,,266000,,,,,,,,383.2,,,4.25,C,102,
192,Polystyrene,Homopolymer,"Benzene, ethyl",C8H10,,120000,,266000,,,,,,,,393.3,,,4.62,C,102,
192,Polystyrene,Homopolymer,"Benzene, ethyl",C8H10,,120000,,266000,,,,,,,,393.4,,,4.42,C,102,
192,Polystyrene,Homopolymer,"Benzene, ethyl",C8H10,,120000,,266000,,,,,,,,403.4,,,4.63,C,102,
192,Polystyrene,Homopolymer,"Benzene, ethyl",C8H10,,120000,,266000,,,,,,,,403.6,,,4.57,C,102,
192,Polystyrene,Homopolymer,"Benzene, ethyl",C8H10,,120000,,266000,,,,,,,,413.8,,,4.66,C,102,
192,Polystyrene,Homopolymer,"Benzene, ethyl",C8H10,,,,1800000,,,,,,,54,444.4,16.63,,,,52,5.85
192,Polystyrene,Homopolymer,"Benzene, ethyl",C8H10,,,,1800000,,,,,,,54,454.6,13.57,,,,52,5.83
192,Polystyrene,Homopolymer,"Benzene, ethyl",C8H10,,,,1800000,,,,,,,54,463,11.36,,,,52,5.92
192,Polystyrene,Homopolymer,"Benzene, ethyl",C8H10,,,,1800000,,,,,,,54,471.7,9.5,,,,52,6.04
192,Polystyrene,Homopolymer,"Benzene, ethyl",C8H10,,1780000,,2145000,,1890000,,,,,41,395.5,,,5.62,U,21,5.82
192,Polystyrene,Homopolymer,"Benzene, ethyl",C8H10,,1780000,,2145000,,1890000,,,,,41,420.9,,,5,U,21,5.29
192,Polystyrene,Homopolymer,"Benzene, ethyl",C8H10,,1780000,,2145000,,1890000,,,,,41,445.9,,,4.76,U,21,5.17
192,Polystyrene,Homopolymer,2-Octene (cis),C8H16,,50660,,53700,,,,,,,47,403,,,8.28,C,11,
192,Polystyrene,Homopolymer,2-Octene (cis),C8H16,,50660,,53700,,,,,,,47,418,,,8.03,C,11,
192,Polystyrene,Homopolymer,2-Octene (cis),C8H16,,50660,,53700,,,,,,,47,423,,,7.96,C,11,
192,Polystyrene,Homopolymer,2-Octene (cis),C8H16,,50660,,53700,,,,,,,47,433,,,7.98,C,11,
193,Polystyrene,Homopolymer,2-Octene (cis),C8H16,,50660,,53700,,,,,,,47,443,,,7.69,C,11,
193,Polystyrene,Homopolymer,2-Octene (cis),C8H16,,50660,,53700,,,,,,,47,448,,,7.95,C,11,
193,Polystyrene,Homopolymer,2-Octene (cis),C8H16,,50660,,53700,,,,,,,47,463,,,7.63,C,11,
193,Polystyrene,Homopolymer,1-Octene,C8H16,,50660,,53700,,,,,,,47,403,,,9.44,C,11,
193,Polystyrene,Homopolymer,1-Octene,C8H16,,50660,,53700,,,,,,,47,418,,,8.81,C,11,
193,Polystyrene,Homopolymer,1-Octene,C8H16,,50660,,53700,,,,,,,47,423,,,8.72,C,11,
193,Polystyrene,Homopolymer,1-Octene,C8H16,,50660,,53700,,,,,,,47,433,,,8.89,C,11,
193,Polystyrene,Homopolymer,1-Octene,C8H16,,50660,,53700,,,,,,,47,443,,,8.45,C,11,
193,Polystyrene,Homopolymer,1-Octene,C8H16,,50660,,53700,,,,,,,47,448,,,8.39,C,11,
193,Polystyrene,Homopolymer,1-Octene,C8H16,,50660,,53700,,,,,,,47,463,,,8.21,C,11,
193,Polystyrene,Homopolymer,"Heptane, 2-methyl",C8H18,,20000,,,,,,,,351,,435.5,1.76,,,C,56,41.5
193,Polystyrene,Homopolymer,"Heptane, 2-methyl",C8H18,,20000,,,,,,,,351,,445,1.93,,,C,56,31.4
193,Polystyrene,Homopolymer,"Heptane, 2-methyl",C8H18,,20000,,,,,,,,351,,492.9,1.49,,,C,56,18.7
193,Polystyrene,Homopolymer,"Heptane, 2-methyl",C8H18,,20000,,,,,,,,351,,502.6,2.15,,,C,56,11.4
193,Polystyrene,Homopolymer,"Heptane, 2-methyl",C8H18,,50660,,53700,,,,,,,47,403,,,10.99,C,11,