Page,Solute,Solute_type,Solvent,Solvent_formula,MN_symbol,MN,MW_symbol,MW,MV_symbol,MV,per composition,per substitution,Tg_symbol,Tg (K),Note,T (K),Vg (cm3/g),chi_inf,omega_inf,U/C,Ref,calc_omega_inf
96,Poly(ethylene oxide),Homopolymer,"Ethane, 1,2-dichloro",C2H4Cl2,,,a,4000000,,,,,,,18,423.7,18.77,,,,55,2.37
96,Poly(ethylene oxide),Homopolymer,"Ethane, 1,2-dichloro",C2H4Cl2,,,,,,4000000,,,,,19,323.2,527,,,,10,1.42
96,Poly(ethylene oxide),Homopolymer,"Ethane, 1,2-dichloro",C2H4Cl2,,,,,,4000000,,,,,19,348.2,205,,,,10,1.49
96,Poly(ethylene oxide),Homopolymer,"Ethane, 1,2-dichloro",C2H4Cl2,,,,,,4000000,,,,,19,361.2,126,,,,10,1.62
96,Poly(ethylene oxide),Homopolymer,"Ethane, 1,2-dichloro",C2H4Cl2,,,,,,4000000,,,,,19,374.8,86.9,,,,10,1.6
96,Poly(ethylene oxide),Homopolymer,"Ethane, 1,2-dichloro",C2H4Cl2,,,,,,4000000,,,,,19,398.2,37.2,,,,10,2.08
96,Poly(ethylene oxide),Homopolymer,"Ethane, 1,2-dichloro",C2H4Cl2,,,,,,4000000,,,,,19,423.2,14,,,,10,3.21
96,Poly(ethylene oxide),Homopolymer,Ethanol,C2H6O,,200,,218,,,,,,,,348.2,153.2,,,,64,3.75
96,Poly(ethylene oxide),Homopolymer,Ethanol,C2H6O,,200,,218,,,,,,,,373.2,64.6,,,,64,3.6
97,Poly(ethylene oxide),Homopolymer,Ethanol,C2H6O,,200,,218,,,,,,,,398.2,31.1,,,,64,3.49
97,Poly(ethylene oxide),Homopolymer,Ethanol,C2H6O,,300,,327,,,,,,,,348.2,130.5,,,,64,4.4
97,Poly(ethylene oxide),Homopolymer,Ethanol,C2H6O,,300,,327,,,,,,,,373.2,56.1,,,,64,4.14
97,Poly(ethylene oxide),Homopolymer,Ethanol,C2H6O,,300,,327,,,,,,,,398.2,27,,,,64,4.02
97,Poly(ethylene oxide),Homopolymer,Ethanol,C2H6O,,400,,436,,,,,,,,348.2,113.7,,,,64,5.05
97,Poly(ethylene oxide),Homopolymer,Ethanol,C2H6O,,400,,436,,,,,,,,373.2,48.9,,,,64,4.75
97,Poly(ethylene oxide),Homopolymer,Ethanol,C2H6O,,400,,436,,,,,,,,398.2,23.4,,,,64,4.64
97,Poly(ethylene oxide),Homopolymer,Ethanol,C2H6O,,600,,654,,,,,,,,348.2,101.4,,,,64,5.67
97,Poly(ethylene oxide),Homopolymer,Ethanol,C2H6O,,600,,654,,,,,,,,373.2,42.6,,,,64,5.45
97,Poly(ethylene oxide),Homopolymer,Ethanol,C2H6O,,600,,654,,,,,,,,398.2,20.9,,,,64,5.19
97,Poly(ethylene oxide),Homopolymer,Ethanol,C2H6O,,600,,,,,,,,,23,343.4,,,5.9,U,96,6.09
97,Poly(ethylene oxide),Homopolymer,Ethanol,C2H6O,,670,,,,,,,,,20,340.5,,,6.39,C,93,
97,Poly(ethylene oxide),Homopolymer,Ethanol,C2H6O,,1000,,1090,,,,,,,,348.2,87.6,,,,64,6.56
97,Poly(ethylene oxide),Homopolymer,Ethanol,C2H6O,,1000,,1090,,,,,,,,373.2,37.9,,,,64,6.13
97,Poly(ethylene oxide),Homopolymer,Ethanol,C2H6O,,1000,,1090,,,,,,,,398.2,19.1,,,,64,5.68
97,Poly(ethylene oxide),Homopolymer,Ethanol,C2H6O,,1000,,,,,,,,,17,343.4,103,,,,96,6.77
97,Poly(ethylene oxide),Homopolymer,Ethanol,C2H6O,,1000,,,,,,,,,17,352.4,73,,,,96,6.68
97,Poly(ethylene oxide),Homopolymer,Ethanol,C2H6O,,1400,,,,,,,,,21,340.5,,,7.48,C,93,
97,Poly(ethylene oxide),Homopolymer,Ethanol,C2H6O,,2000,,2180,,,,,,,,348.2,82.7,,,,64,6.95
97,Poly(ethylene oxide),Homopolymer,Ethanol,C2H6O,,2000,,2180,,,,,,,,373.2,35.9,,,,64,6.47
97,Poly(ethylene oxide),Homopolymer,Ethanol,C2H6O,,2000,,2180,,,,,,,,398.2,18.1,,,,64,5.99
97,Poly(ethylene oxide),Homopolymer,Ethanol,C2H6O,,2100,,,,,,,,,24,343.4,,,6.92,U,96,7.14
97,Poly(ethylene oxide),Homopolymer,Ethanol,C2H6O,,3400,,,,,,,,,22,340.5,,,8.16,C,93,
97,Poly(ethylene oxide),Homopolymer,Ethanol,C2H6O,,3600,,,,,,,,,25,343.4,,,6.81,U,96,7.03
97,Poly(ethylene oxide),Homopolymer,Ethanol,C2H6O,,4000,,,,,,,,,26,343.4,,,6.96,U,96,7.18
97,Poly(ethylene oxide),Homopolymer,Ethanol,C2H6O,,10800,,,,,,,,,27,343.4,,,7.39,U,96,7.62
97,Poly(ethylene oxide),Homopolymer,Ethanol,C2H6O,,,,300000,,,,,,,,353.2,,,10.6,C,96,
97,Poly(ethylene oxide),Homopolymer,Ethanol,C2H6O,,,,300000,,,,,,,,373.2,,,9.816,C,70,
97,Poly(ethylene oxide),Homopolymer,Ethanol,C2H6O,,,,300000,,,,,,,,393.2,,,9.49,C,70,
98,Poly(ethylene oxide),Homopolymer,2-Propanone,C3H6O,,1000,,,,,,,,,17,343.4,42.1,,,,96,6.2
98,Poly(ethylene oxide),Homopolymer,2-Propanone,C3H6O,,1000,,,,,,,,,17,352.4,32.6,,,,96,6.17
98,Poly(ethylene oxide),Homopolymer,2-Propanone,C3H6O,,,,300000,,,,,,,,353.2,,,7.725,C,70,
98,Poly(ethylene oxide),Homopolymer,2-Propanone,C3H6O,,,,300000,,,,,,,,373.2,,,7.625,C,70,
98,Poly(ethylene oxide),Homopolymer,2-Propanone,C3H6O,,,,300000,,,,,,,,393.2,,,7.736,C,70,
98,Poly(ethylene oxide),Homopolymer,2-Propanone,C3H6O,,,a,4000000,,,,,,,18,343.4,50.42,,,,55,5.18
98,Poly(ethylene oxide),Homopolymer,2-Propanone,C3H6O,,,a,4000000,,,,,,,18,348.4,42.86,,,,55,5.26
98,Poly(ethylene oxide),Homopolymer,2-Propanone,C3H6O,,,a,4000000,,,,,,,18,361.4,28.84,,,,55,5.47
98,Poly(ethylene oxide),Homopolymer,2-Propanone,C3H6O,,,a,4000000,,,,,,,18,375.1,21.31,,,,55,5.25
98,Poly(ethylene oxide),Homopolymer,2-Propanone,C3H6O,,,a,4000000,,,,,,,18,398.9,12.53,,,,55,5.28
98,Poly(ethylene oxide),Homopolymer,2-Propanone,C3H6O,,,a,4000000,,,,,,,18,423.7,7.553,,,,55,5.51
98,Poly(ethylene oxide),Homopolymer,2-Propanone,C3H6O,,,,,,4000000,,,,,19,323.2,213,,,,10,2.35
98,Poly(ethylene oxide),Homopolymer,2-Propanone,C3H6O,,,,,,4000000,,,,,19,348.2,80.3,,,,10,2.82
98,Poly(ethylene oxide),Homopolymer,2-Propanone,C3H6O,,,,,,4000000,,,,,19,361.2,57.5,,,,10,2.76
98,Poly(ethylene oxide),Homopolymer,2-Propanone,C3H6O,,,,,,4000000,,,,,19,398.2,21.8,,,,10,3.08
98,Poly(ethylene oxide),Homopolymer,2-Propanone,C3H6O,,,,,,4000000,,,,,19,423.2,11.5,,,,10,3.65
98,Poly(ethylene oxide),Homopolymer,"Acetic acid, methyl ester",C3H6O2,,1000,,,,,,,,,17,343.4,42.8,,,,96,4.87
98,Poly(ethylene oxide),Homopolymer,"Acetic acid, methyl ester",C3H6O2,,1000,,,,,,,,,17,352.4,32.6,,,,96,4.91
98,Poly(ethylene oxide),Homopolymer,1-Propanol,C3H8O,,200,,218,,,,,,,,348.2,274.1,,,,64,3.5
98,Poly(ethylene oxide),Homopolymer,1-Propanol,C3H8O,,200,,218,,,,,,,,373.2,107,,,,64,3.3
98,Poly(ethylene oxide),Homopolymer,1-Propanol,C3H8O,,200,,218,,,,,,,,398.2,48.4,,,,64,3.19
98,Poly(ethylene oxide),Homopolymer,1-Propanol,C3H8O,,300,,327,,,,,,,,348.2,240.2,,,,64,3.99
98,Poly(ethylene oxide),Homopolymer,1-Propanol,C3H8O,,300,,327,,,,,,,,373.2,95.3,,,,64,3.71
98,Poly(ethylene oxide),Homopolymer,1-Propanol,C3H8O,,300,,327,,,,,,,,398.2,43.4,,,,64,3.55
99,Poly(ethylene oxide),Homopolymer,1-Propanol,C3H8O,,400,,436,,,,,,,,348.2,213.8,,,,64,4.48
99,Poly(ethylene oxide),Homopolymer,1-Propanol,C3H8O,,400,,436,,,,,,,,373.2,85.1,,,,64,4.15
99,Poly(ethylene oxide),Homopolymer,1-Propanol,C3H8O,,400,,436,,,,,,,,398.2,38.4,,,,64,4.02
99,Poly(ethylene oxide),Homopolymer,1-Propanol,C3H8O,,600,,654,,,,,,,,348.2,192,,,,64,4.99
99,Poly(ethylene oxide),Homopolymer,1-Propanol,C3H8O,,600,,654,,,,,,,,373.2,75.3,,,,64,4.7
99,Poly(ethylene oxide),Homopolymer,1-Propanol,C3H8O,,600,,654,,,,,,,,398.2,34.6,,,,64,4.46
99,Poly(ethylene oxide),Homopolymer,1-Propanol,C3H8O,,1000,,1090,,,,,,,,348.2,170.2,,,,64,5.63
99,Poly(ethylene oxide),Homopolymer,1-Propanol,C3H8O,,1000,,1090,,,,,,,,373.2,68.2,,,,64,5.18
99,Poly(ethylene oxide),Homopolymer,1-Propanol,C3H8O,,1000,,1090,,,,,,,,398.2,32.2,,,,64,4.79
99,Poly(ethylene oxide),Homopolymer,1-Propanol,C3H8O,,2000,,2180,,,,,,,,348.2,101.6,,,,64,9.44
99,Poly(ethylene oxide),Homopolymer,1-Propanol,C3H8O,,2000,,2180,,,,,,,,373.2,64.9,,,,64,5.45
99,Poly(ethylene oxide),Homopolymer,1-Propanol,C3H8O,,2000,,2180,,,,,,,,398.2,30.4,,,,64,5.07
99,Poly(ethylene oxide),Homopolymer,1-Propanol,C3H8O,,10700,,11450,,,,,,,,343.2,175.5,,,,71,6.83
99,Poly(ethylene oxide),Homopolymer,1-Propanol,C3H8O,,10700,,11450,,,,,,,,373.2,58.58,,,,71,6.04
99,Poly(ethylene oxide),Homopolymer,1-Propanol,C3H8O,,10700,,11450,,,,,,,,393.2,30.94,,,,71,5.81
99,Poly(ethylene oxide),Homopolymer,1-Propanol,C3H8O,,,,300000,,,,,,,,355.2,,,9.208,C,70,
99,Poly(ethylene oxide),Homopolymer,1-Propanol,C3H8O,,,,300000,,,,,,,,373.2,,,8.569,C,70,
99,Poly(ethylene oxide),Homopolymer,1-Propanol,C3H8O,,,,300000,,,,,,,,393.2,,,8.286,C,70,
99,Poly(ethylene oxide),Homopolymer,2-Propanol,C3H8O,,10700,,11450,,,,,,,,343.2,78.3,,,,71,8.18
99,Poly(ethylene oxide),Homopolymer,2-Propanol,C3H8O,,10700,,11450,,,,,,,,373.2,28.68,,,,71,7.2
99,Poly(ethylene oxide),Homopolymer,2-Butanone,C4H8O,,600,,,,,,,,,23,343.4,,,5.72,U,96,5.95
99,Poly(ethylene oxide),Homopolymer,2-Butanone,C4H8O,,1000,,,,,,,,,17,343.4,73,,,,96,5.99
99,Poly(ethylene oxide),Homopolymer,2-Butanone,C4H8O,,1000,,,,,,,,,17,352.4,54.8,,,,96,5.98
99,Poly(ethylene oxide),Homopolymer,2-Butanone,C4H8O,,2100,,,,,,,,,24,343.4,,,5.8,U,96,6.04
99,Poly(ethylene oxide),Homopolymer,2-Butanone,C4H8O,,3600,,,,,,,,,25,343.4,,,5.58,U,96,5.81
100,Poly(ethylene oxide),Homopolymer,2-Butanone,C4H8O,,4000,,,,,,,,,26,343.4,,,5.59,U,96,5.82
100,Poly(ethylene oxide),Homopolymer,2-Butanone,C4H8O,,10800,,,,,,,,,27,343.4,,,5.68,U,96,5.91
100,Poly(ethylene oxide),Homopolymer,2-Butanone,C4H8O,,,a,4000000,,,,,,,18,343.4,86.7,,,,55,5.04
100,Poly(ethylene oxide),Homopolymer,2-Butanone,C4H8O,,,a,4000000,,,,,,,18,348.4,74.11,,,,55,5.01
100,Poly(ethylene oxide),Homopolymer,2-Butanone,C4H8O,,,a,4000000,,,,,,,18,361.4,48.68,,,,55,5.14
100,Poly(ethylene oxide),Homopolymer,2-Butanone,C4H8O,,,a,4000000,,,,,,,18,375.1,32.91,,,,55,5.21
100,Poly(ethylene oxide),Homopolymer,2-Butanone,C4H8O,,,a,4000000,,,,,,,18,398.9,18.44,,,,55,5.23
100,Poly(ethylene oxide),Homopolymer,2-Butanone,C4H8O,,,a,4000000,,,,,,,18,423.7,10.56,,,,55,5.5
100,Poly(ethylene oxide),Homopolymer,2-Butanone,C4H8O,,,,,,4000000,,,,,19,323.2,313,,,,10,2.87
100,Poly(ethylene oxide),Homopolymer,2-Butanone,C4H8O,,,,,,4000000,,,,,19,348.2,111,,,,10,3.37
100,Poly(ethylene oxide),Homopolymer,2-Butanone,C4H8O,,,,,,4000000,,,,,19,361.2,69.2,,,,10,3.64
100,Poly(ethylene oxide),Homopolymer,2-Butanone,C4H8O,,,,,,4000000,,,,,19,374.8,47,,,,10,3.68
100,Poly(ethylene oxide),Homopolymer,2-Butanone,C4H8O,,,,,,4000000,,,,,19,398.2,21,,,,10,4.67
100,Poly(ethylene oxide),Homopolymer,2-Butanone,C4H8O,,,,,,4000000,,,,,19,423.2,0,,,,10,
100,Poly(ethylene oxide),Homopolymer,"Furane, tetrahydro",C4H8O,,,a,4000000,,,,,,,18,343.4,66.24,,,,55,4.25
100,Poly(ethylene oxide),Homopolymer,"Furane, tetrahydro",C4H8O,,,a,4000000,,,,,,,18,348.4,58.27,,,,55,4.15
100,Poly(ethylene oxide),Homopolymer,"Furane, tetrahydro",C4H8O,,,a,4000000,,,,,,,18,361.4,38.12,,,,55,4.39
100,Poly(ethylene oxide),Homopolymer,"Furane, tetrahydro",C4H8O,,,a,4000000,,,,,,,18,375.1,26.53,,,,55,4.43
100,Poly(ethylene oxide),Homopolymer,"Furane, tetrahydro",C4H8O,,,a,4000000,,,,,,,18,398.9,14.76,,,,55,4.66
100,Poly(ethylene oxide),Homopolymer,"Furane, tetrahydro",C4H8O,,,a,4000000,,,,,,,18,423.7,9.27,,,,55,4.6
100,Poly(ethylene oxide),Homopolymer,"Furane, tetrahydro",C4H8O,,,,,,4000000,,,,,19,323.2,151,,,,10,3.64
100,Poly(ethylene oxide),Homopolymer,"Furane, tetrahydro",C4H8O,,,,,,4000000,,,,,19,348.2,85,,,,10,2.86
100,Poly(ethylene oxide),Homopolymer,"Furane, tetrahydro",C4H8O,,,,,,4000000,,,,,19,361.2,67.5,,,,10,2.49
100,Poly(ethylene oxide),Homopolymer,"Furane, tetrahydro",C4H8O,,,,,,4000000,,,,,19,374.8,44,,,,10,2.69
100,Poly(ethylene oxide),Homopolymer,"Furane, tetrahydro",C4H8O,,,,,,4000000,,,,,19,398.2,24.5,,,,10,2.85
100,Poly(ethylene oxide),Homopolymer,"Furane, tetrahydro",C4H8O,,,,,,4000000,,,,,19,423.2,4.5,,,,10,9.56
101,Poly(ethylene oxide),Homopolymer,"Acetic acid, ethyl ester",C4H8O2,,670,,,,,,,,,20,340.5,,,5.53,C,93,
101,Poly(ethylene oxide),Homopolymer,"Acetic acid, ethyl ester",C4H8O2,,1400,,,,,,,,,21,340.5,,,5.41,C,93,
101,Poly(ethylene oxide),Homopolymer,"Acetic acid, ethyl ester",C4H8O2,,3400,,,,,,,,,22,340.5,,,5.2,C,93,
101,Poly(ethylene oxide),Homopolymer,"Acetic acid, ethyl ester",C4H8O2,,10700,,11450,,,,,,,,343.2,62.7,,,,71,5.39
101,Poly(ethylene oxide),Homopolymer,"Acetic acid, ethyl ester",C4H8O2,,10700,,11450,,,,,,,,373.2,25.64,,,,71,5.33
101,Poly(ethylene oxide),Homopolymer,"Acetic acid, ethyl ester",C4H8O2,,,,300000,,,,,,,,355.2,,,5.637,C,70,
101,Poly(ethylene oxide),Homopolymer,"Acetic acid, ethyl ester",C4H8O2,,,,300000,,,,,,,,373.2,,,5.672,C,70,
101,Poly(ethylene oxide),Homopolymer,"Acetic acid, ethyl ester",C4H8O2,,,,300000,,,,,,,,393.2,,,5.864,C,70,
101,Poly(ethylene oxide),Homopolymer,"1,4-Dioxane",C4H8O2,,1000,,,,,,,,,17,343.4,219,,,,96,3.39
101,Poly(ethylene oxide),Homopolymer,"1,4-Dioxane",C4H8O2,,1000,,,,,,,,,17,352.4,158,,,,96,3.43
101,Poly(ethylene oxide),Homopolymer,"1,4-Dioxane",C4H8O2,,10700,,11450,,,,,,,,343.2,221.1,,,,71,3.38
101,Poly(ethylene oxide),Homopolymer,"1,4-Dioxane",C4H8O2,,10700,,11450,,,,,,,,373.2,81.96,,,,71,3.42
101,Poly(ethylene oxide),Homopolymer,1-Butanol,C4H10O,,200,,218,,,,,,,,348.2,517,,,,64,3.49
101,Poly(ethylene oxide),Homopolymer,1-Butanol,C4H10O,,200,,218,,,,,,,,373.2,187.8,,,,64,3.25
101,Poly(ethylene oxide),Homopolymer,1-Butanol,C4H10O,,200,,218,,,,,,,,398.2,80.3,,,,64,3.08
101,Poly(ethylene oxide),Homopolymer,1-Butanol,C4H10O,,300,,327,,,,,,,,348.2,466.6,,,,64,3.87
101,Poly(ethylene oxide),Homopolymer,1-Butanol,C4H10O,,300,,327,,,,,,,,373.2,171.9,,,,64,3.55
101,Poly(ethylene oxide),Homopolymer,1-Butanol,C4H10O,,300,,327,,,,,,,,398.2,73.4,,,,64,3.37
101,Poly(ethylene oxide),Homopolymer,1-Butanol,C4H10O,,400,,436,,,,,,,,348.2,416.7,,,,64,4.33
101,Poly(ethylene oxide),Homopolymer,1-Butanol,C4H10O,,400,,436,,,,,,,,373.2,154.9,,,,64,3.94
101,Poly(ethylene oxide),Homopolymer,1-Butanol,C4H10O,,400,,436,,,,,,,,398.2,65.5,,,,64,3.78
101,Poly(ethylene oxide),Homopolymer,1-Butanol,C4H10O,,600,,654,,,,,,,,348.2,318.4,,,,64,5.67
101,Poly(ethylene oxide),Homopolymer,1-Butanol,C4H10O,,600,,654,,,,,,,,373.2,137.9,,,,64,4.43
101,Poly(ethylene oxide),Homopolymer,1-Butanol,C4H10O,,600,,654,,,,,,,,398.2,59.4,,,,64,4.17
101,Poly(ethylene oxide),Homopolymer,1-Butanol,C4H10O,,600,,,,,,,,,23,343.4,,,5.05,U,56,5.11
102,Poly(ethylene oxide),Homopolymer,1-Butanol,C4H10O,,1000,,1090,,,,,,,,348.2,342.7,,,,64,5.27
102,Poly(ethylene oxide),Homopolymer,1-Butanol,C4H10O,,1000,,1090,,,,,,,,373.2,127.1,,,,64,4.8
102,Poly(ethylene oxide),Homopolymer,1-Butanol,C4H10O,,1000,,1090,,,,,,,,398.2,56,,,,64,4.42
102,Poly(ethylene oxide),Homopolymer,1-Butanol,C4H10O,,1000,,,,,,,,,17,343.4,401,,,,96,5.68
102,Poly(ethylene oxide),Homopolymer,1-Butanol,C4H10O,,1000,,,,,,,,,17,352.4,267,,,,96,5.55
102,Poly(ethylene oxide),Homopolymer,1-Butanol,C4H10O,,2000,,2180,,,,,,,,348.2,326.6,,,,64,5.52
102,Poly(ethylene oxide),Homopolymer,1-Butanol,C4H10O,,2000,,2180,,,,,,,,373.2,121.2,,,,64,5.04
102,Poly(ethylene oxide),Homopolymer,1-Butanol,C4H10O,,2000,,2180,,,,,,,,398.2,53.2,,,,64,4.65
102,Poly(ethylene oxide),Homopolymer,1-Butanol,C4H10O,,2100,,,,,,,,,24,343.4,,,5.95,U,96,6.02
102,Poly(ethylene oxide),Homopolymer,1-Butanol,C4H10O,,3600,,,,,,,,,25,343.4,,,5.9,U,96,5.97
102,Poly(ethylene oxide),Homopolymer,1-Butanol,C4H10O,,4000,,,,,,,,,26,343.4,,,5.98,U,96,6.05
102,Poly(ethylene oxide),Homopolymer,1-Butanol,C4H10O,,10800,,,,,,,,,27,343.4,,,6.32,U,96,6.39
102,Poly(ethylene oxide),Homopolymer,1-Butanol,C4H10O,,,a,4000000,,,,,,,18,343.4,431.59,,,,55,5.27
102,Poly(ethylene oxide),Homopolymer,1-Butanol,C4H10O,,,a,4000000,,,,,,,18,348.4,334.56,,,,55,5.34
102,Poly(ethylene oxide),Homopolymer,1-Butanol,C4H10O,,,a,4000000,,,,,,,18,361.4,194.15,,,,55,5.12
102,Poly(ethylene oxide),Homopolymer,1-Butanol,C4H10O,,,a,4000000,,,,,,,18,375.1,114.16,,,,55,4.97
102,Poly(ethylene oxide),Homopolymer,1-Butanol,C4H10O,,,a,4000000,,,,,,,18,398.9,53.69,,,,55,4.51
102,Poly(ethylene oxide),Homopolymer,1-Butanol,C4H10O,,,a,4000000,,,,,,,18,423.7,26.4,,,,55,4.35
102,Poly(ethylene oxide),Homopolymer,2-Butanol,C4H10O,,1000,,,,,,,,,17,352.4,123,,,,96,8.02
102,Poly(ethylene oxide),Homopolymer,2-Butanol,C4H10O,,2100,,,,,,,,,24,343.4,,,7.35,U,96,7.47
102,Poly(ethylene oxide),Homopolymer,2-Butanol,C4H10O,,3600,,,,,,,,,25,343.4,,,7.35,U,96,7.47
102,Poly(ethylene oxide),Homopolymer,2-Butanol,C4H10O,,4000,,,,,,,,,26,343.4,,,7.3,U,96,7.42
102,Poly(ethylene oxide),Homopolymer,2-Butanol,C4H10O,,10800,,,,,,,,,27,343.4,,,7.8,U,96,7.93
102,Poly(ethylene oxide),Homopolymer,"Ether, diethyl",C4H10O,,1000,,,,,,,,,17,343.4,10,,,,96,11
102,Poly(ethylene oxide),Homopolymer,"Ether, diethyl",C4H10O,,1000,,,,,,,,,17,352.4,8.11,,,,96,10.9
103,Poly(ethylene oxide),Homopolymer,"1,2-Ethanediol, dimethyl ether",C4H10O2,,10700,,11450,,,,,,,,343.2,80.73,,,,71,5.09
103,Poly(ethylene oxide),Homopolymer,"1,2-Ethanediol, dimethyl ether",C4H10O2,,10700,,11450,,,,,,,,373.2,31.41,,,,71,5.22
103,Poly(ethylene oxide),Homopolymer,Pyridine,C5H5N,,600,,,,,,,,,23,343.4,,,2.29,U,96,2.32
103,Poly(ethylene oxide),Homopolymer,Pyridine,C5H5N,,1000,,,,,,,,,17,343.4,536,,,,96,2.43
103,Poly(ethylene oxide),Homopolymer,Pyridine,C5H5N,,1000,,,,,,,,,17,352.4,371,,,,96,2.51
103,Poly(ethylene oxide),Homopolymer,Pyridine,C5H5N,,2100,,,,,,,,,24,343.4,,,2.71,U,96,2.74
103,Poly(ethylene oxide),Homopolymer,Pyridine,C5H5N,,3600,,,,,,,,,25,343.4,,,2.66,U,96,2.69
103,Poly(ethylene oxide),Homopolymer,Pyridine,C5H5N,,4000,,,,,,,,,26,343.4,,,2.66,U,96,2.69
103,Poly(ethylene oxide),Homopolymer,Pyridine,C5H5N,,10700,,11450,,,,,,,,373.2,161.1,,,,71,2.86
103,Poly(ethylene oxide),Homopolymer,Pyridine,C5H5N,,10700,,11450,,,,,,,,393.2,85.2,,,,71,3
103,Poly(ethylene oxide),Homopolymer,Pyridine,C5H5N,,10800,,,,,,,,,27,343.4,,,2.81,U,96,2.84
103,Poly(ethylene oxide),Homopolymer,Pentane,C5H12,,1000,,,,,,,,,17,343.4,4.02,,,,96,30.1
103,Poly(ethylene oxide),Homopolymer,Pentane,C5H12,,1000,,,,,,,,,17,352.4,3.26,,,,96,29.8
103,Poly(ethylene oxide),Homopolymer,"Benzene, chloro",C6H5Cl,,,,300000,,,,,,,,353.2,,,3.082,C,70,
103,Poly(ethylene oxide),Homopolymer,"Benzene, chloro",C6H5Cl,,,,300000,,,,,,,,373.2,,,3.139,C,70,
103,Poly(ethylene oxide),Homopolymer,"Benzene, chloro",C6H5Cl,,,,300000,,,,,,,,393.2,,,3.247,C,70,
103,Poly(ethylene oxide),Homopolymer,Benzene,C6H6,,200,,218,,,,,,,,348.2,61.7,,,,64,5.64
103,Poly(ethylene oxide),Homopolymer,Benzene,C6H6,,200,,218,,,,,,,,373.2,31.5,,,,64,5.41
103,Poly(ethylene oxide),Homopolymer,Benzene,C6H6,,200,,218,,,,,,,,398.2,17.8,,,,64,5.26
103,Poly(ethylene oxide),Homopolymer,Benzene,C6H6,,300,,327,,,,,,,,348.2,70,,,,64,4.97
104,Poly(ethylene oxide),Homopolymer,Benzene,C6H6,,300,,327,,,,,,,,373.2,35.7,,,,64,4.78
104,Poly(ethylene oxide),Homopolymer,Benzene,C6H6,,300,,327,,,,,,,,398.2,20,,,,64,4.68
104,Poly(ethylene oxide),Homopolymer,Benzene,C6H6,,400,,436,,,,,,,,348.2,74.6,,,,64,4.66
104,Poly(ethylene oxide),Homopolymer,Benzene,C6H6,,400,,436,,,,,,,,373.2,37.3,,,,64,4.57
104,Poly(ethylene oxide),Homopolymer,Benzene,C6H6,,400,,436,,,,,,,,398.2,20.6,,,,64,4.54
104,Poly(ethylene oxide),Homopolymer,Benzene,C6H6,,600,,654,,,,,,,,348.2,78.6,,,,64,4.43
104,Poly(ethylene oxide),Homopolymer,Benzene,C6H6,,600,,654,,,,,,,,373.2,37.7,,,,64,4.52
104,Poly(ethylene oxide),Homopolymer,Benzene,C6H6,,600,,654,,,,,,,,398.2,21.1,,,,64,4.44
104,Poly(ethylene oxide),Homopolymer,Benzene,C6H6,,600,,,,,,,,,23,343.4,,,4.63,U,96,4.76
104,Poly(ethylene oxide),Homopolymer,Benzene,C6H6,,670,,,,,,,,,20,340.5,,,5.08,C,93,
104,Poly(ethylene oxide),Homopolymer,Benzene,C6H6,,1000,,1090,,,,,,,,348.2,82.4,,,,64,4.22
104,Poly(ethylene oxide),Homopolymer,Benzene,C6H6,,1000,,1090,,,,,,,,373.2,40.3,,,,64,4.23
104,Poly(ethylene oxide),Homopolymer,Benzene,C6H6,,1000,,1090,,,,,,,,398.2,22.3,,,,64,4.2
104,Poly(ethylene oxide),Homopolymer,Benzene,C6H6,,1000,,,,,,,,,17,343.4,91,,,,96,4.45
104,Poly(ethylene oxide),Homopolymer,Benzene,C6H6,,1000,,,,,,,,,17,352.4,67.9,,,,96,4.5
104,Poly(ethylene oxide),Homopolymer,Benzene,C6H6,,1400,,,,,,,,,21,340.5,,,4.54,C,93,
104,Poly(ethylene oxide),Homopolymer,Benzene,C6H6,,2000,,2180,,,,,,,,348.2,87.4,,,,64,3.98
104,Poly(ethylene oxide),Homopolymer,Benzene,C6H6,,2000,,2180,,,,,,,,373.2,42.4,,,,64,4.02
104,Poly(ethylene oxide),Homopolymer,Benzene,C6H6,,2000,,2180,,,,,,,,398.2,23.1,,,,64,4.05
104,Poly(ethylene oxide),Homopolymer,Benzene,C6H6,,2100,,,,,,,,,24,343.4,,,4.08,U,96,4.2
104,Poly(ethylene oxide),Homopolymer,Benzene,C6H6,,3400,,,,,,,,,22,340.5,,,4.24,C,93,
104,Poly(ethylene oxide),Homopolymer,Benzene,C6H6,,3600,,,,,,,,,25,343.4,,,3.81,U,96,3.92
104,Poly(ethylene oxide),Homopolymer,Benzene,C6H6,,4000,,,,,,,,,28,334.4,,,3.792,C,90,
104,Poly(ethylene oxide),Homopolymer,Benzene,C6H6,,4000,,,,,,,,,28,343.7,,,3.834,C,90,
104,Poly(ethylene oxide),Homopolymer,Benzene,C6H6,,4000,,,,,,,,,28,353.5,,,4.076,C,90,