Page,Solute,Solute_type,Solvent,Solvent_formula,MN_symbol,MN,MW_symbol,MW,MV_symbol,MV,per composition,per substitution,Tg_symbol,Tg (K),Note,T (K),Vg (cm3/g),chi_inf,omega_inf,U/C,Ref,calc_omega_inf
234,Poly(vinyl acetate),Homopolymer,"Acetic acid, butyl ester",C6H12O2,,,,1500000,,,,,,,,401.8,33.8,,,,66,5.62
234,Poly(vinyl acetate),Homopolymer,"Acetic acid, butyl ester",C6H12O2,,,,1500000,,,,,,,,417.3,20.9,,,,66,6.07
234,Poly(vinyl acetate),Homopolymer,"Hexane, 1-chloro",C6H13Cl,,47800,,435000,,,,,,,,392.7,,,7.32,C,66,
234,Poly(vinyl acetate),Homopolymer,"Hexane, 1-chloro",C6H13Cl,,47800,,435000,,,,,,,,413.2,,,7.69,C,66,
234,Poly(vinyl acetate),Homopolymer,"Hexane, 1-chloro",C6H13Cl,,47800,,435000,,,,,,,,433,,,8.08,C,66,
234,Poly(vinyl acetate),Homopolymer,"Hexane, 1-chloro",C6H13Cl,,,,500000,,,,,,,,363,,,6.05,C,66,
234,Poly(vinyl acetate),Homopolymer,"Hexane, 1-chloro",C6H13Cl,,,,500000,,,,,,,,387.5,,,6.62,C,66,
234,Poly(vinyl acetate),Homopolymer,"Hexane, 1-chloro",C6H13Cl,,,,500000,,,,,,,,401.8,,,6.89,C,66,
234,Poly(vinyl acetate),Homopolymer,"Hexane, 1-chloro",C6H13Cl,,,,500000,,,,,,,,417.1,,,7.32,C,66,
234,Poly(vinyl acetate),Homopolymer,"Hexane, 1-chloro",C6H13Cl,,,,1500000,,,,,,,,373.8,,,8,C,66,
234,Poly(vinyl acetate),Homopolymer,"Hexane, 1-chloro",C6H13Cl,,,,1500000,,,,,,,,388.5,,,8.08,C,66,
234,Poly(vinyl acetate),Homopolymer,"Hexane, 1-chloro",C6H13Cl,,,,1500000,,,,,,,,402.8,,,8.17,C,66,
234,Poly(vinyl acetate),Homopolymer,"Hexane, 1-chloro",C6H13Cl,,,,1500000,,,,,,,,418.2,,,8.25,C,66,
234,Poly(vinyl acetate),Homopolymer,Hexane,C6H14,,6700,,40000,,,,,,,,373.2,3.29,,,,20,36.3
234,Poly(vinyl acetate),Homopolymer,Hexane,C6H14,,6700,,40000,,,,,,,,393.2,2.48,,,,20,30.8
234,Poly(vinyl acetate),Homopolymer,Hexane,C6H14,,47800,,435000,,,,,,,,374.1,6.68,,,,66,17.5
235,Poly(vinyl acetate),Homopolymer,Hexane,C6H14,,47800,,435000,,,,,,,,392.7,4.22,,,,66,18.3
235,Poly(vinyl acetate),Homopolymer,Hexane,C6H14,,47800,,435000,,,,,,,,413.2,2.77,,,,66,18.6
235,Poly(vinyl acetate),Homopolymer,Hexane,C6H14,,47800,,435000,,,,,,,,433,1.86,,,,66,19.7
235,Poly(vinyl acetate),Homopolymer,Hexane,C6H14,,,,500000,,,,,,,,363,6.68,,,,66,23
235,Poly(vinyl acetate),Homopolymer,Hexane,C6H14,,,,500000,,,,,,,,387.5,4.39,,,,66,19.6
235,Poly(vinyl acetate),Homopolymer,Hexane,C6H14,,,,500000,,,,,,,,401.8,3.49,,,,66,18.4
235,Poly(vinyl acetate),Homopolymer,Hexane,C6H14,,,,500000,,,,,,,,417.1,2.72,,,,66,17.7
235,Poly(vinyl acetate),Homopolymer,Hexane,C6H14,,,,1500000,,,,,,,,373.8,5.13,,,,66,22.9
235,Poly(vinyl acetate),Homopolymer,Hexane,C6H14,,,,1500000,,,,,,,,388.5,3.82,,,,66,22.1
235,Poly(vinyl acetate),Homopolymer,Hexane,C6H14,,,,1500000,,,,,,,,402.8,2.89,,,,66,21.8
235,Poly(vinyl acetate),Homopolymer,Hexane,C6H14,,,,1500000,,,,,,,,418.2,2.18,,,,66,21.7
235,Poly(vinyl acetate),Homopolymer,1-Hexanol,C6H14O,,,,500000,,,,,,,,393.2,113.7,,,,97,
235,Poly(vinyl acetate),Homopolymer,1-Hexanol,C6H14O,,,,500000,,,,,,,,399.2,99.24,,,,97,
235,Poly(vinyl acetate),Homopolymer,1-Hexanol,C6H14O,,,,500000,,,,,,,,405.2,76.7,,,,97,
235,Poly(vinyl acetate),Homopolymer,1-Hexanol,C6H14O,,,,500000,,,,,,,,408.2,70.82,,,,97,
235,Poly(vinyl acetate),Homopolymer,1-Hexanol,C6H14O,,,,500000,,,,,,,,411.2,66.01,,,,97,
235,Poly(vinyl acetate),Homopolymer,1-Hexanol,C6H14O,,,,500000,,,,,,,,417.2,53.92,,,,97,
235,Poly(vinyl acetate),Homopolymer,1-Hexanol,C6H14O,,,,500000,,,,,,,,423.2,44.25,,,,97,
235,Poly(vinyl acetate),Homopolymer,Toluene,C7H8,,6700,,40000,,,,,,,,353.2,97.15,,,,20,6.68
235,Poly(vinyl acetate),Homopolymer,Toluene,C7H8,,6700,,40000,,,,,,,,363.2,70.31,,,,20,6.65
235,Poly(vinyl acetate),Homopolymer,Toluene,C7H8,,6700,,40000,,,,,,,,373.2,53.67,,,,20,6.41
235,Poly(vinyl acetate),Homopolymer,Toluene,C7H8,,6700,,40000,,,,,,,,393.2,30.97,,,,20,6.37
235,Poly(vinyl acetate),Homopolymer,Toluene,C7H8,,,a,45000,,,,,a,305.15,,398.2,28.9,,,,89,6.01
235,Poly(vinyl acetate),Homopolymer,Toluene,C7H8,,,a,45000,,,,,a,305.15,,413.2,21,,,,89,5.77
235,Poly(vinyl acetate),Homopolymer,Toluene,C7H8,,,,45000,,,,,a,305.15,,398.2,29.2,,,,92,5.95
236,Poly(vinyl acetate),Homopolymer,Toluene,C7H8,,,,45000,,,,,a,305.15,,413.2,20.5,,,,92,5.91
236,Poly(vinyl acetate),Homopolymer,Toluene,C7H8,,,,257000,,,,,,,,353.2,,,4.5,C,43,
236,Poly(vinyl acetate),Homopolymer,Toluene,C7H8,,,,257000,,,,,,,,373.2,,,4.05,C,43,
236,Poly(vinyl acetate),Homopolymer,Toluene,C7H8,,,,257000,,,,,,,,393.2,,,3.75,C,43,
236,Poly(vinyl acetate),Homopolymer,Toluene,C7H8,,,,331400,,,,,,,,373.2,55.8,,,,26,6.16
236,Poly(vinyl acetate),Homopolymer,Toluene,C7H8,,,,331400,,,,,,,,398.2,25.1,,,,26,6.92
236,Poly(vinyl acetate),Homopolymer,Toluene,C7H8,,,,331400,,,,,,,,423.2,15.3,,,,26,6.35
236,Poly(vinyl acetate),Homopolymer,Toluene,C7H8,,,,331400,,,,,,,,448.2,9.4,,,,26,6.29
236,Poly(vinyl acetate),Homopolymer,Toluene,C7H8,,47800,,435000,,,,,,,,374.1,73,,,,66,4.58
236,Poly(vinyl acetate),Homopolymer,Toluene,C7H8,,47800,,435000,,,,,,,,392.7,41.3,,,,66,4.84
236,Poly(vinyl acetate),Homopolymer,Toluene,C7H8,,47800,,435000,,,,,,,,413.2,22.9,,,,66,5.29
236,Poly(vinyl acetate),Homopolymer,Toluene,C7H8,,47800,,435000,,,,,,,,433,13.6,,,,66,5.82
236,Poly(vinyl acetate),Homopolymer,Toluene,C7H8,,83350,,331400,,,,,,,,373.2,53.8,,,,2,6.39
236,Poly(vinyl acetate),Homopolymer,Toluene,C7H8,,83350,,331400,,,,,,,,398.2,27.2,,,,2,6.39
236,Poly(vinyl acetate),Homopolymer,Toluene,C7H8,,83350,,331400,,,,,,,,423.2,15.2,,,,2,6.39
236,Poly(vinyl acetate),Homopolymer,Toluene,C7H8,,83350,,331400,,,,,,,,448.2,9,,,,2,6.57
236,Poly(vinyl acetate),Homopolymer,Toluene,C7H8,,83350,,331400,,,,,,,,473.2,6,,,,2,6.42
236,Poly(vinyl acetate),Homopolymer,Toluene,C7H8,,,,500000,,,,,,,,354,154,,,,66,4.1
236,Poly(vinyl acetate),Homopolymer,Toluene,C7H8,,,,500000,,,,,,,,372.5,74.4,,,,66,4.71
236,Poly(vinyl acetate),Homopolymer,Toluene,C7H8,,,,500000,,,,,,,,393.2,30.24,,,,97,6.53
236,Poly(vinyl acetate),Homopolymer,Toluene,C7H8,,,,500000,,,,,,,,395.8,35.5,,,,66,5.19
236,Poly(vinyl acetate),Homopolymer,Toluene,C7H8,,,,500000,,,,,,,,399.2,25.93,,,,97,6.53
236,Poly(vinyl acetate),Homopolymer,Toluene,C7H8,,,,500000,,,,,,,,405.2,23.14,,,,97,6.32
236,Poly(vinyl acetate),Homopolymer,Toluene,C7H8,,,,500000,,,,,,,,408.2,21.1,,,,97,6.45
236,Poly(vinyl acetate),Homopolymer,Toluene,C7H8,,,,500000,,,,,,,,411.2,20.43,,,,97,6.21
236,Poly(vinyl acetate),Homopolymer,Toluene,C7H8,,,,500000,,,,,,,,417.1,19.7,,,,66,5.63
236,Poly(vinyl acetate),Homopolymer,Toluene,C7H8,,,,500000,,,,,,,,417.2,16.99,,,,97,6.52
236,Poly(vinyl acetate),Homopolymer,Toluene,C7H8,,,,500000,,,,,,,,423.2,14.84,,,,97,6.55
236,Poly(vinyl acetate),Homopolymer,Toluene,C7H8,,,,1500000,,,,,,,,374.8,69.4,,,,66,4.73
237,Poly(vinyl acetate),Homopolymer,Toluene,C7H8,,,,1500000,,,,,,,,388.4,40.8,,,,66,5.48
237,Poly(vinyl acetate),Homopolymer,Toluene,C7H8,,,,1500000,,,,,,,,401.8,27.4,,,,66,5.8
237,Poly(vinyl acetate),Homopolymer,Toluene,C7H8,,,,1500000,,,,,,,,417.3,18,,,,66,6.13
237,Poly(vinyl acetate),Homopolymer,Toluene,C7H8,,,,,,141420,,,,,,353.2,,0.52,,C,28,
237,Poly(vinyl acetate),Homopolymer,Toluene,C7H8,,,,,,141420,,,,,,373.2,,0.51,,C,28,
237,Poly(vinyl acetate),Homopolymer,"Cyclohexane, methyl",C7H14,,47800,,435000,,,,,,,,374.1,18.7,,,,66,12.7
237,Poly(vinyl acetate),Homopolymer,"Cyclohexane, methyl",C7H14,,47800,,435000,,,,,,,,392.7,11.9,,,,66,12.4
237,Poly(vinyl acetate),Homopolymer,"Cyclohexane, methyl",C7H14,,47800,,435000,,,,,,,,413.2,7.39,,,,66,12.6
237,Poly(vinyl acetate),Homopolymer,"Cyclohexane, methyl",C7H14,,47800,,435000,,,,,,,,433,4.71,,,,66,13.3
237,Poly(vinyl acetate),Homopolymer,"Cyclohexane, methyl",C7H14,,,,500000,,,,,,,,372.5,18.2,,,,66,13.6
237,Poly(vinyl acetate),Homopolymer,"Cyclohexane, methyl",C7H14,,,,500000,,,,,,,,395.8,10.7,,,,66,12.8
237,Poly(vinyl acetate),Homopolymer,"Cyclohexane, methyl",C7H14,,,,500000,,,,,,,,417.1,6.3,,,,66,13.6
237,Poly(vinyl acetate),Homopolymer,"Cyclohexane, methyl",C7H14,,,,1500000,,,,,,,,374.8,17.5,,,,66,13.3
237,Poly(vinyl acetate),Homopolymer,"Cyclohexane, methyl",C7H14,,,,1500000,,,,,,,,388.4,12.4,,,,66,13.2
237,Poly(vinyl acetate),Homopolymer,"Cyclohexane, methyl",C7H14,,,,1500000,,,,,,,,401.8,8.67,,,,66,13.8
237,Poly(vinyl acetate),Homopolymer,"Cyclohexane, methyl",C7H14,,,,1500000,,,,,,,,417.3,6.05,,,,66,14.1
237,Poly(vinyl acetate),Homopolymer,1-Heptene,C7H14,,47800,,435000,,,,,,,,374.1,14.3,,,,66,13.8
237,Poly(vinyl acetate),Homopolymer,1-Heptene,C7H14,,47800,,435000,,,,,,,,392.7,9.3,,,,66,13.2
237,Poly(vinyl acetate),Homopolymer,1-Heptene,C7H14,,47800,,435000,,,,,,,,413.2,5.26,,,,66,14.9
237,Poly(vinyl acetate),Homopolymer,1-Heptene,C7H14,,47800,,435000,,,,,,,,433,3.46,,,,66,15.4
237,Poly(vinyl acetate),Homopolymer,1-Heptene,C7H14,,,,500000,,,,,,,,363,16.4,,,,66,16.4
237,Poly(vinyl acetate),Homopolymer,1-Heptene,C7H14,,,,500000,,,,,,,,387.5,9.21,,,,66,15.1
237,Poly(vinyl acetate),Homopolymer,1-Heptene,C7H14,,,,500000,,,,,,,,401.8,6.82,,,,66,14.6
237,Poly(vinyl acetate),Homopolymer,1-Heptene,C7H14,,,,500000,,,,,,,,417.1,5,,,,66,14.4
237,Poly(vinyl acetate),Homopolymer,1-Heptene,C7H14,,,,1500000,,,,,,,,373.8,12.1,,,,66,16.4
238,Poly(vinyl acetate),Homopolymer,1-Heptene,C7H14,,,,1500000,,,,,,,,388.5,8,,,,66,17
238,Poly(vinyl acetate),Homopolymer,1-Heptene,C7H14,,,,1500000,,,,,,,,402.8,5.93,,,,66,16.5
238,Poly(vinyl acetate),Homopolymer,1-Heptene,C7H14,,,,1500000,,,,,,,,418.2,4.26,,,,66,16.6
238,Poly(vinyl acetate),Homopolymer,Heptane,C7H16,,6700,,40000,,,,,,,,373.2,5.97,,,,20,38
238,Poly(vinyl acetate),Homopolymer,Heptane,C7H16,,6700,,40000,,,,,,,,393.2,4.18,,,,20,32.3
238,Poly(vinyl acetate),Homopolymer,Heptane,C7H16,,,a,45000,,,,,a,305.15,,398.2,4.15,,,,89,28.9
238,Poly(vinyl acetate),Homopolymer,Heptane,C7H16,,,a,45000,,,,,a,305.15,,413.2,3.12,,,,89,27.5
238,Poly(vinyl acetate),Homopolymer,Heptane,C7H16,,,,45000,,,,,a,305.15,,398.2,4.25,,,,92,28.2
238,Poly(vinyl acetate),Homopolymer,Heptane,C7H16,,,,45000,,,,,a,305.15,,413.2,3.2,,,,92,26.8
238,Poly(vinyl acetate),Homopolymer,Heptane,C7H16,,47800,,435000,,,,,,,,374.1,10.4,,,,66,21.3
238,Poly(vinyl acetate),Homopolymer,Heptane,C7H16,,47800,,435000,,,,,,,,392.7,6.75,,,,66,20.2
238,Poly(vinyl acetate),Homopolymer,Heptane,C7H16,,47800,,435000,,,,,,,,413.2,4.1,,,,66,20.9
238,Poly(vinyl acetate),Homopolymer,Heptane,C7H16,,47800,,435000,,,,,,,,433,2.12,,,,66,21.2
238,Poly(vinyl acetate),Homopolymer,Heptane,C7H16,,,,500000,,,,,,,,363,11.9,,,,66,25.6
238,Poly(vinyl acetate),Homopolymer,Heptane,C7H16,,,,500000,,,,,,,,387.5,7.1,,,,66,21.9
238,Poly(vinyl acetate),Homopolymer,Heptane,C7H16,,,,500000,,,,,,,,401.8,5.21,,,,66,21.1
238,Poly(vinyl acetate),Homopolymer,Heptane,C7H16,,,,500000,,,,,,,,417.1,3.97,,,,66,19.9
238,Poly(vinyl acetate),Homopolymer,Heptane,C7H16,,,,1500000,,,,,,,,373.8,9.02,,,,66,24.7
238,Poly(vinyl acetate),Homopolymer,Heptane,C7H16,,,,1500000,,,,,,,,388.5,6.11,,,,66,24.8
238,Poly(vinyl acetate),Homopolymer,Heptane,C7H16,,,,1500000,,,,,,,,402.8,4.48,,,,66,24
238,Poly(vinyl acetate),Homopolymer,Heptane,C7H16,,,,1500000,,,,,,,,418.2,3.32,,,,66,23.2
238,Poly(vinyl acetate),Homopolymer,1-Heptanol,C7H16O,,,,500000,,,,,,,,393.2,185.7,,,,97,
238,Poly(vinyl acetate),Homopolymer,1-Heptanol,C7H16O,,,,500000,,,,,,,,399.2,155.6,,,,97,
238,Poly(vinyl acetate),Homopolymer,1-Heptanol,C7H16O,,,,500000,,,,,,,,405.2,120.9,,,,97,
238,Poly(vinyl acetate),Homopolymer,1-Heptanol,C7H16O,,,,500000,,,,,,,,408.2,111.2,,,,97,
239,Poly(vinyl acetate),Homopolymer,1-Heptanol,C7H16O,,,,500000,,,,,,,,411.2,103.3,,,,97,
239,Poly(vinyl acetate),Homopolymer,1-Heptanol,C7H16O,,,,500000,,,,,,,,417.2,87.56,,,,97,
239,Poly(vinyl acetate),Homopolymer,1-Heptanol,C7H16O,,,,500000,,,,,,,,423.2,65.14,,,,97,
239,Poly(vinyl acetate),Homopolymer,"Benzene, ethyl",C8H10,,47800,,435000,,,,,,,,374.1,117,,,,66,5.28
239,Poly(vinyl acetate),Homopolymer,"Benzene, ethyl",C8H10,,47800,,435000,,,,,,,,392.7,62.2,,,,66,5.61
239,Poly(vinyl acetate),Homopolymer,"Benzene, ethyl",C8H10,,47800,,435000,,,,,,,,413.2,33.8,,,,66,5.92
239,Poly(vinyl acetate),Homopolymer,"Benzene, ethyl",C8H10,,47800,,435000,,,,,,,,433,19.3,,,,66,6.46
239,Poly(vinyl acetate),Homopolymer,"Benzene, ethyl",C8H10,,,,500000,,,,,,,,372.5,114,,,,66,5.71
239,Poly(vinyl acetate),Homopolymer,"Benzene, ethyl",C8H10,,,,500000,,,,,,,,393.2,46.68,,,,97,7.37
239,Poly(vinyl acetate),Homopolymer,"Benzene, ethyl",C8H10,,,,500000,,,,,,,,395.8,52.5,,,,66,6.08
239,Poly(vinyl acetate),Homopolymer,"Benzene, ethyl",C8H10,,,,500000,,,,,,,,399.2,39.59,,,,97,7.34
239,Poly(vinyl acetate),Homopolymer,"Benzene, ethyl",C8H10,,,,500000,,,,,,,,405.2,34.9,,,,97,7.07
239,Poly(vinyl acetate),Homopolymer,"Benzene, ethyl",C8H10,,,,500000,,,,,,,,408.2,31.54,,,,97,7.22
239,Poly(vinyl acetate),Homopolymer,"Benzene, ethyl",C8H10,,,,500000,,,,,,,,411.2,30.66,,,,97,6.87
239,Poly(vinyl acetate),Homopolymer,"Benzene, ethyl",C8H10,,,,500000,,,,,,,,417.1,28.8,,,,66,6.3
239,Poly(vinyl acetate),Homopolymer,"Benzene, ethyl",C8H10,,,,500000,,,,,,,,417.2,24.72,,,,97,7.33
239,Poly(vinyl acetate),Homopolymer,"Benzene, ethyl",C8H10,,,,500000,,,,,,,,423.2,21.45,,,,97,7.3
239,Poly(vinyl acetate),Homopolymer,"Benzene, ethyl",C8H10,,,,1500000,,,,,,,,374.8,93.7,,,,66,6.46
239,Poly(vinyl acetate),Homopolymer,"Benzene, ethyl",C8H10,,,,1500000,,,,,,,,388.4,61.6,,,,66,6.42
239,Poly(vinyl acetate),Homopolymer,"Benzene, ethyl",C8H10,,,,1500000,,,,,,,,401.8,41.7,,,,66,6.48
239,Poly(vinyl acetate),Homopolymer,"Benzene, ethyl",C8H10,,,,1500000,,,,,,,,417.3,28.5,,,,66,6.33
239,Poly(vinyl acetate),Homopolymer,"Cyclohexane, ethyl",C8H16,,47800,,435000,,,,,,,,374.1,35.2,,,,66,14.2
239,Poly(vinyl acetate),Homopolymer,"Cyclohexane, ethyl",C8H16,,47800,,435000,,,,,,,,392.7,21.3,,,,66,13.6
239,Poly(vinyl acetate),Homopolymer,"Cyclohexane, ethyl",C8H16,,47800,,435000,,,,,,,,413.2,12.2,,,,66,14
239,Poly(vinyl acetate),Homopolymer,"Cyclohexane, ethyl",C8H16,,47800,,435000,,,,,,,,433,7.69,,,,66,14.1
240,Poly(vinyl acetate),Homopolymer,"Cyclohexane, ethyl",C8H16,,,,1500000,,,,,,,,374.8,29.7,,,,66,16.5
240,Poly(vinyl acetate),Homopolymer,"Cyclohexane, ethyl",C8H16,,,,1500000,,,,,,,,388.4,20.5,,,,66,15.9
240,Poly(vinyl acetate),Homopolymer,"Cyclohexane, ethyl",C8H16,,,,1500000,,,,,,,,401.8,14.6,,,,66,15.6
240,Poly(vinyl acetate),Homopolymer,"Cyclohexane, ethyl",C8H16,,,,1500000,,,,,,,,417.3,9.58,,,,66,16.1
240,Poly(vinyl acetate),Homopolymer,1-Octene,C8H16,,47800,,435000,,,,,,,,374.1,23.6,,,,66,16.1
240,Poly(vinyl acetate),Homopolymer,1-Octene,C8H16,,47800,,435000,,,,,,,,392.7,13.9,,,,66,16
240,Poly(vinyl acetate),Homopolymer,1-Octene,C8H16,,47800,,435000,,,,,,,,413.2,8.08,,,,66,16.3
240,Poly(vinyl acetate),Homopolymer,1-Octene,C8H16,,47800,,435000,,,,,,,,433,4.85,,,,66,17.5
240,Poly(vinyl acetate),Homopolymer,1-Octene,C8H16,,86000,,,,,,,,,,408.2,,,22.74,C,53,
240,Poly(vinyl acetate),Homopolymer,1-Octene,C8H16,,,,500000,,,,,,,,363,33.1,,,,66,16.4
240,Poly(vinyl acetate),Homopolymer,1-Octene,C8H16,,,,500000,,,,,,,,387.5,15.8,,,,66,16.2
240,Poly(vinyl acetate),Homopolymer,1-Octene,C8H16,,,,500000,,,,,,,,401.8,10.9,,,,66,16
240,Poly(vinyl acetate),Homopolymer,1-Octene,C8H16,,,,500000,,,,,,,,417.1,7.61,,,,66,15.8
240,Poly(vinyl acetate),Homopolymer,1-Octene,C8H16,,,,1500000,,,,,,,,373.8,20.5,,,,66,18.7
240,Poly(vinyl acetate),Homopolymer,1-Octene,C8H16,,,,1500000,,,,,,,,388.5,12.9,,,,66,19.3
240,Poly(vinyl acetate),Homopolymer,1-Octene,C8H16,,,,1500000,,,,,,,,402.8,8.94,,,,66,19
240,Poly(vinyl acetate),Homopolymer,1-Octene,C8H16,,,,1500000,,,,,,,,418.2,6.36,,,,66,18.5
240,Poly(vinyl acetate),Homopolymer,"Heptane, 2-methyl",C8H18,,6700,,40000,,,,,,,,373.2,4.84,,,,20,71
240,Poly(vinyl acetate),Homopolymer,"Heptane, 2-methyl",C8H18,,6700,,40000,,,,,,,,393.2,3.76,,,,20,51.7
240,Poly(vinyl acetate),Homopolymer,Octane,C8H18,,6700,,40000,,,,,,,,363.2,13.4,,,,20,45.9
240,Poly(vinyl acetate),Homopolymer,Octane,C8H18,,6700,,40000,,,,,,,,373.2,10.8,,,,20,40.9
240,Poly(vinyl acetate),Homopolymer,Octane,C8H18,,6700,,40000,,,,,,,,393.2,6.96,,,,20,34.8
240,Poly(vinyl acetate),Homopolymer,Octane,C8H18,,,,257000,,,,,,,,353.2,,,14.9,C,43,
241,Poly(vinyl acetate),Homopolymer,Octane,C8H18,,,,257000,,,,,,,,373.2,,,13.5,C,43,
241,Poly(vinyl acetate),Homopolymer,Octane,C8H18,,,,257000,,,,,,,,393.2,,,12.6,C,43,
241,Poly(vinyl acetate),Homopolymer,Octane,C8H18,,47800,,435000,,,,,,,,374.1,17.8,,,,66,24.1
241,Poly(vinyl acetate),Homopolymer,Octane,C8H18,,47800,,435000,,,,,,,,392.7,10.4,,,,66,23.6
241,Poly(vinyl acetate),Homopolymer,Octane,C8H18,,47800,,435000,,,,,,,,413.2,6.36,,,,66,22.5
241,Poly(vinyl acetate),Homopolymer,Octane,C8H18,,47800,,435000,,,,,,,,433,3.86,,,,66,23.6
241,Poly(vinyl acetate),Homopolymer,Octane,C8H18,,,,500000,,,,,,,,363,23.1,,,,66,26.8
241,Poly(vinyl acetate),Homopolymer,Octane,C8H18,,,,500000,,,,,,,,387.5,12.4,,,,66,23
241,Poly(vinyl acetate),Homopolymer,Octane,C8H18,,,,500000,,,,,,,,401.8,8.5,,,,66,22.5
241,Poly(vinyl acetate),Homopolymer,Octane,C8H18,,,,500000,,,,,,,,417.1,5.93,,,,66,22
241,Poly(vinyl acetate),Homopolymer,Octane,C8H18,,,,1500000,,,,,,,,373.8,15.3,,,,66,28.3
241,Poly(vinyl acetate),Homopolymer,Octane,C8H18,,,,1500000,,,,,,,,388.5,10.2,,,,66,27.1
241,Poly(vinyl acetate),Homopolymer,Octane,C8H18,,,,1500000,,,,,,,,402.8,7.24,,,,66,25.8
241,Poly(vinyl acetate),Homopolymer,Octane,C8H18,,,,1500000,,,,,,,,418.2,5.26,,,,66,24.2
241,Poly(vinyl acetate),Homopolymer,Octane,C8H18,,,,,,141420,,,,,,353.2,,2.56,,C,28,
241,Poly(vinyl acetate),Homopolymer,Octane,C8H18,,,,,,141420,,,,,,373.2,,2.14,,C,28,
241,Poly(vinyl acetate),Homopolymer,1-Octanol,C8H18O,,,,500000,,,,,,,,393.2,300.4,,,,97,
241,Poly(vinyl acetate),Homopolymer,1-Octanol,C8H18O,,,,500000,,,,,,,,399.2,248.1,,,,97,
241,Poly(vinyl acetate),Homopolymer,1-Octanol,C8H18O,,,,500000,,,,,,,,405.2,188.6,,,,97,
241,Poly(vinyl acetate),Homopolymer,1-Octanol,C8H18O,,,,500000,,,,,,,,408.2,173.4,,,,97,
241,Poly(vinyl acetate),Homopolymer,1-Octanol,C8H18O,,,,500000,,,,,,,,411.2,158.9,,,,97,
241,Poly(vinyl acetate),Homopolymer,1-Octanol,C8H18O,,,,500000,,,,,,,,417.2,133.4,,,,97,
241,Poly(vinyl acetate),Homopolymer,1-Octanol,C8H18O,,,,500000,,,,,,,,423.2,99.72,,,,97,
241,Poly(vinyl acetate),Homopolymer,"Diethyleneglycol, diethyl ether",C8H18O3,,,,257000,,,,,,,,353.2,,,3.72,C,43,
241,Poly(vinyl acetate),Homopolymer,"Diethyleneglycol, diethyl ether",C8H18O3,,,,257000,,,,,,,,373.2,,,3.73,C,43,
242,Poly(vinyl acetate),Homopolymer,"Diethyleneglycol, diethyl ether",C8H18O3,,,,257000,,,,,,,,393.2,,,3.71,C,43,
242,Poly(vinyl acetate),Homopolymer,1-Nonene,C9H18,,47800,,435000,,,,,,,,374.1,40.4,,,,66,18.3
242,Poly(vinyl acetate),Homopolymer,1-Nonene,C9H18,,47800,,435000,,,,,,,,392.7,23.6,,,,66,17.2
242,Poly(vinyl acetate),Homopolymer,1-Nonene,C9H18,,47800,,435000,,,,,,,,413.2,13.2,,,,66,17.1
242,Poly(vinyl acetate),Homopolymer,1-Nonene,C9H18,,47800,,435000,,,,,,,,433,7.54,,,,66,18.3
242,Poly(vinyl acetate),Homopolymer,1-Nonene,C9H18,,,,500000,,,,,,,,363,58.6,,,,66,18.9
242,Poly(vinyl acetate),Homopolymer,1-Nonene,C9H18,,,,500000,,,,,,,,387.5,26,,,,66,18.3
242,Poly(vinyl acetate),Homopolymer,1-Nonene,C9H18,,,,500000,,,,,,,,401.8,17.3,,,,66,17.9
242,Poly(vinyl acetate),Homopolymer,1-Nonene,C9H18,,,,500000,,,,,,,,417.1,11.7,,,,66,17.4
242,Poly(vinyl acetate),Homopolymer,1-Nonene,C9H18,,,,1500000,,,,,,,,373.8,34.5,,,,66,21.7
242,Poly(vinyl acetate),Homopolymer,1-Nonene,C9H18,,,,1500000,,,,,,,,388.5,21.1,,,,66,21.9
242,Poly(vinyl acetate),Homopolymer,1-Nonene,C9H18,,,,1500000,,,,,,,,402.8,14,,,,66,21.5
242,Poly(vinyl acetate),Homopolymer,1-Nonene,C9H18,,,,1500000,,,,,,,,418.2,9.39,,,,66,21.1
242,Poly(vinyl acetate),Homopolymer,Nonane,C9H20,,47800,,435000,,,,,,,,374.1,30.6,,,,66,27.4
242,Poly(vinyl acetate),Homopolymer,Nonane,C9H20,,47800,,435000,,,,,,,,392.7,18.2,,,,66,24.7
242,Poly(vinyl acetate),Homopolymer,Nonane,C9H20,,47800,,435000,,,,,,,,413.2,10.2,,,,66,24.1
242,Poly(vinyl acetate),Homopolymer,Nonane,C9H20,,47800,,435000,,,,,,,,433,5.87,,,,66,25.1
242,Poly(vinyl acetate),Homopolymer,Nonane,C9H20,,86000,,,,,,,,,,398.2,,,37.15,,101,
242,Poly(vinyl acetate),Homopolymer,Nonane,C9H20,,86000,,,,,,,,,,408.2,,,34.15,,53,