Page,Solute,Solute_type,Solvent,Solvent_formula,MN_symbol,MN,MW_symbol,MW,MV_symbol,MV,per composition,per substitution,Tg_symbol,Tg (K),Note,T (K),Vg (cm3/g),chi_inf,omega_inf,U/C,Ref,calc_omega_inf
226,Poly(vinyl acetate),Homopolymer,1-Butanol,C4H10O,,,,500000,,,,,,,,405.2,30.65,,,,97,6.45
226,Poly(vinyl acetate),Homopolymer,1-Butanol,C4H10O,,,,500000,,,,,,,,408.2,27.91,,,,97,6.45
226,Poly(vinyl acetate),Homopolymer,1-Butanol,C4H10O,,,,500000,,,,,,,,411.2,26.25,,,,97,6.26
226,Poly(vinyl acetate),Homopolymer,1-Butanol,C4H10O,,,,500000,,,,,,,,417.1,27.1,,,,66,5.09
226,Poly(vinyl acetate),Homopolymer,1-Butanol,C4H10O,,,,500000,,,,,,,,417.2,22.03,,,,97,6.26
226,Poly(vinyl acetate),Homopolymer,1-Butanol,C4H10O,,,,500000,,,,,,,,423.2,19.16,,,,97,6.07
226,Poly(vinyl acetate),Homopolymer,1-Butanol,C4H10O,,,,1500000,,,,,,,,373.8,91.8,,,,66,6.49
226,Poly(vinyl acetate),Homopolymer,1-Butanol,C4H10O,,,,1500000,,,,,,,,388.5,54.1,,,,66,6.36
226,Poly(vinyl acetate),Homopolymer,1-Butanol,C4H10O,,,,1500000,,,,,,,,402.8,34.5,,,,66,6.17
226,Poly(vinyl acetate),Homopolymer,1-Butanol,C4H10O,,,,1500000,,,,,,,,418.2,22.6,,,,66,5.92
226,Poly(vinyl acetate),Homopolymer,2-Butanol,C4H10O,,,,500000,,,,,,,,393.2,25.08,,,,97,8.32
226,Poly(vinyl acetate),Homopolymer,2-Butanol,C4H10O,,,,500000,,,,,,,,399.2,20.74,,,,97,8.34
226,Poly(vinyl acetate),Homopolymer,2-Butanol,C4H10O,,,,500000,,,,,,,,405.2,18.22,,,,97,7.93
226,Poly(vinyl acetate),Homopolymer,2-Butanol,C4H10O,,,,500000,,,,,,,,408.2,16.82,,,,97,7.87
226,Poly(vinyl acetate),Homopolymer,2-Butanol,C4H10O,,,,500000,,,,,,,,411.2,15.68,,,,97,7.76
226,Poly(vinyl acetate),Homopolymer,2-Butanol,C4H10O,,,,500000,,,,,,,,417.2,13.36,,,,97,7.73
226,Poly(vinyl acetate),Homopolymer,2-Butanol,C4H10O,,,,500000,,,,,,,,423.2,12.1,,,,97,7.29
226,Poly(vinyl acetate),Homopolymer,"2-Propanol, 2-methyl",C4H10O,,,,500000,,,,,,,,393.2,32.95,,,,97,2.83
226,Poly(vinyl acetate),Homopolymer,"2-Propanol, 2-methyl",C4H10O,,,,500000,,,,,,,,399.2,28.41,,,,97,2.79
226,Poly(vinyl acetate),Homopolymer,"2-Propanol, 2-methyl",C4H10O,,,,500000,,,,,,,,405.2,24.13,,,,97,2.81
226,Poly(vinyl acetate),Homopolymer,"2-Propanol, 2-methyl",C4H10O,,,,500000,,,,,,,,408.2,22.02,,,,97,2.86
226,Poly(vinyl acetate),Homopolymer,"2-Propanol, 2-methyl",C4H10O,,,,500000,,,,,,,,411.2,20.68,,,,97,2.83
227,Poly(vinyl acetate),Homopolymer,"2-Propanol, 2-methyl",C4H10O,,,,500000,,,,,,,,417.2,17.11,,,,97,2.96
227,Poly(vinyl acetate),Homopolymer,"2-Propanol, 2-methyl",C4H10O,,,,500000,,,,,,,,423.2,15.2,,,,97,2.92
227,Poly(vinyl acetate),Homopolymer,"Ethanol, 2-ethoxy",C4H10O2,,83350,,331400,,,,,,,,398.2,60.2,,,,2,5.87
227,Poly(vinyl acetate),Homopolymer,"Ethanol, 2-ethoxy",C4H10O2,,83350,,331400,,,,,,,,423.2,29,,,,2,5.77
227,Poly(vinyl acetate),Homopolymer,"Ethanol, 2-ethoxy",C4H10O2,,83350,,331400,,,,,,,,448.2,16.3,,,,2,5.34
227,Poly(vinyl acetate),Homopolymer,"Ethanol, 2-ethoxy",C4H10O2,,83350,,331400,,,,,,,,473.2,9.1,,,,2,5.38
227,Poly(vinyl acetate),Homopolymer,2-Pentanone,C5H10O,,47800,,435000,,,,,,,,374.1,60.3,,,,66,4.74
227,Poly(vinyl acetate),Homopolymer,2-Pentanone,C5H10O,,47800,,435000,,,,,,,,392.7,33.4,,,,66,5.09
227,Poly(vinyl acetate),Homopolymer,2-Pentanone,C5H10O,,47800,,435000,,,,,,,,413.2,19.1,,,,66,5.38
227,Poly(vinyl acetate),Homopolymer,2-Pentanone,C5H10O,,47800,,435000,,,,,,,,433,11.2,,,,66,5.97
227,Poly(vinyl acetate),Homopolymer,2-Pentanone,C5H10O,,86000,,,,,,,,,,408.2,,,6.35,C,53,
227,Poly(vinyl acetate),Homopolymer,2-Pentanone,C5H10O,,,,500000,,,,,,,,363,99.5,,,,66,4.04
227,Poly(vinyl acetate),Homopolymer,2-Pentanone,C5H10O,,,,500000,,,,,,,,387.5,42.5,,,,66,4.6
227,Poly(vinyl acetate),Homopolymer,2-Pentanone,C5H10O,,,,500000,,,,,,,,401.8,28.2,,,,66,4.78
227,Poly(vinyl acetate),Homopolymer,2-Pentanone,C5H10O,,,,500000,,,,,,,,417.1,18.9,,,,66,4.97
227,Poly(vinyl acetate),Homopolymer,2-Pentanone,C5H10O,,,,1500000,,,,,,,,373.8,54.6,,,,66,5.28
227,Poly(vinyl acetate),Homopolymer,2-Pentanone,C5H10O,,,,1500000,,,,,,,,388.5,34.1,,,,66,5.58
227,Poly(vinyl acetate),Homopolymer,2-Pentanone,C5H10O,,,,1500000,,,,,,,,402.8,23.1,,,,66,5.7
227,Poly(vinyl acetate),Homopolymer,2-Pentanone,C5H10O,,,,1500000,,,,,,,,418.2,15.8,,,,66,5.8
227,Poly(vinyl acetate),Homopolymer,"Acetic acid, propyl ester",C5H10O2,,47800,,435000,,,,,,,,374.1,55.7,,,,66,4.23
227,Poly(vinyl acetate),Homopolymer,"Acetic acid, propyl ester",C5H10O2,,47800,,435000,,,,,,,,392.7,30,,,,66,4.66
227,Poly(vinyl acetate),Homopolymer,"Acetic acid, propyl ester",C5H10O2,,47800,,435000,,,,,,,,413.2,16.6,,,,66,5.11
227,Poly(vinyl acetate),Homopolymer,"Acetic acid, propyl ester",C5H10O2,,47800,,435000,,,,,,,,433,9.21,,,,66,6.04
228,Poly(vinyl acetate),Homopolymer,"Acetic acid, propyl ester",C5H10O2,,,,1500000,,,,,,,,374.8,51.9,,,,66,4.45
228,Poly(vinyl acetate),Homopolymer,"Acetic acid, propyl ester",C5H10O2,,,,1500000,,,,,,,,388.4,31.2,,,,66,5.03
228,Poly(vinyl acetate),Homopolymer,"Acetic acid, propyl ester",C5H10O2,,,,1500000,,,,,,,,401.8,20.9,,,,66,5.32
228,Poly(vinyl acetate),Homopolymer,"Acetic acid, propyl ester",C5H10O2,,,,1500000,,,,,,,,417.3,14,,,,66,5.52
228,Poly(vinyl acetate),Homopolymer,"Pentane, 1-chloro",C5H11Cl,,47800,,435000,,,,,,,,392.7,25,,,,66,6.59
228,Poly(vinyl acetate),Homopolymer,"Pentane, 1-chloro",C5H11Cl,,47800,,435000,,,,,,,,413.2,14.3,,,,66,7.13
228,Poly(vinyl acetate),Homopolymer,"Pentane, 1-chloro",C5H11Cl,,47800,,435000,,,,,,,,433,8.67,,,,66,7.82
228,Poly(vinyl acetate),Homopolymer,"Pentane, 1-chloro",C5H11Cl,,,,500000,,,,,,,,363,73,,,,66,5.15
228,Poly(vinyl acetate),Homopolymer,"Pentane, 1-chloro",C5H11Cl,,,,500000,,,,,,,,387.5,31.8,,,,66,5.92
228,Poly(vinyl acetate),Homopolymer,"Pentane, 1-chloro",C5H11Cl,,,,500000,,,,,,,,401.8,21.1,,,,66,6.26
228,Poly(vinyl acetate),Homopolymer,"Pentane, 1-chloro",C5H11Cl,,,,500000,,,,,,,,417.1,14.2,,,,66,6.6
228,Poly(vinyl acetate),Homopolymer,"Pentane, 1-chloro",C5H11Cl,,,,1500000,,,,,,,,373.8,38.5,,,,66,7.1
228,Poly(vinyl acetate),Homopolymer,"Pentane, 1-chloro",C5H11Cl,,,,1500000,,,,,,,,388.5,24.8,,,,66,7.39
228,Poly(vinyl acetate),Homopolymer,"Pentane, 1-chloro",C5H11Cl,,,,1500000,,,,,,,,402.8,17.1,,,,66,7.55
228,Poly(vinyl acetate),Homopolymer,"Pentane, 1-chloro",C5H11Cl,,,,1500000,,,,,,,,418.2,11.8,,,,66,7.76
228,Poly(vinyl acetate),Homopolymer,Pentane,C5H12,,,,500000,,,,,,,,363,3.52,,,,66,21.7
228,Poly(vinyl acetate),Homopolymer,Pentane,C5H12,,,,500000,,,,,,,,387.5,2.61,,,,66,18.1
228,Poly(vinyl acetate),Homopolymer,Pentane,C5H12,,,,500000,,,,,,,,401.8,2.18,,,,66,16.9
228,Poly(vinyl acetate),Homopolymer,Pentane,C5H12,,,,500000,,,,,,,,417.1,1.75,,,,66,16.7
228,Poly(vinyl acetate),Homopolymer,1-Pentanol,C5H12O,,,,500000,,,,,,,,393.2,70.51,,,,97,
228,Poly(vinyl acetate),Homopolymer,1-Pentanol,C5H12O,,,,500000,,,,,,,,399.2,58.95,,,,97,
228,Poly(vinyl acetate),Homopolymer,1-Pentanol,C5H12O,,,,500000,,,,,,,,405.2,50.3,,,,97,
228,Poly(vinyl acetate),Homopolymer,1-Pentanol,C5H12O,,,,500000,,,,,,,,408.2,44.59,,,,97,
229,Poly(vinyl acetate),Homopolymer,1-Pentanol,C5H12O,,,,500000,,,,,,,,411.2,41.96,,,,97,
229,Poly(vinyl acetate),Homopolymer,1-Pentanol,C5H12O,,,,500000,,,,,,,,417.2,33.35,,,,97,
229,Poly(vinyl acetate),Homopolymer,1-Pentanol,C5H12O,,,,500000,,,,,,,,423.2,28.76,,,,97,
229,Poly(vinyl acetate),Homopolymer,2-Pentanol,C5H12O,,,,500000,,,,,,,,393.2,38.46,,,,97,6.7
229,Poly(vinyl acetate),Homopolymer,2-Pentanol,C5H12O,,,,500000,,,,,,,,399.2,32.53,,,,97,6.49
229,Poly(vinyl acetate),Homopolymer,2-Pentanol,C5H12O,,,,500000,,,,,,,,405.2,28.89,,,,97,6.04
229,Poly(vinyl acetate),Homopolymer,2-Pentanol,C5H12O,,,,500000,,,,,,,,408.2,27,,,,97,5.9
229,Poly(vinyl acetate),Homopolymer,2-Pentanol,C5H12O,,,,500000,,,,,,,,411.2,24.25,,,,97,6
229,Poly(vinyl acetate),Homopolymer,2-Pentanol,C5H12O,,,,500000,,,,,,,,417.2,20.15,,,,97,6.07
229,Poly(vinyl acetate),Homopolymer,2-Pentanol,C5H12O,,,,500000,,,,,,,,423.2,16.8,,,,97,6.17
229,Poly(vinyl acetate),Homopolymer,"Benzene, chloro",C6H5Cl,,86000,,,,,,,,,,408.2,,,4.25,C,53,
229,Poly(vinyl acetate),Homopolymer,"Benzene, chloro",C6H5Cl,,,,257000,,,,,,,,353.2,,,2.84,C,43,
229,Poly(vinyl acetate),Homopolymer,"Benzene, chloro",C6H5Cl,,,,257000,,,,,,,,373.2,,,2.61,C,43,
229,Poly(vinyl acetate),Homopolymer,"Benzene, chloro",C6H5Cl,,,,257000,,,,,,,,393.2,,,2.46,C,43,
229,Poly(vinyl acetate),Homopolymer,Benzene,C6H6,,6700,,40000,,,,,,,,353.2,49.48,,,,20,6.03
229,Poly(vinyl acetate),Homopolymer,Benzene,C6H6,,6700,,40000,,,,,,,,363.2,38.96,,,,20,5.73
229,Poly(vinyl acetate),Homopolymer,Benzene,C6H6,,6700,,40000,,,,,,,,373.2,30.87,,,,20,5.52
229,Poly(vinyl acetate),Homopolymer,Benzene,C6H6,,6700,,40000,,,,,,,,393.2,18.87,,,,20,5.55
229,Poly(vinyl acetate),Homopolymer,Benzene,C6H6,,,a,45000,,,,,a,305.15,,398.2,17.2,,,,89,5.44
229,Poly(vinyl acetate),Homopolymer,Benzene,C6H6,,,a,45000,,,,,a,305.15,,413.2,12.9,,,,89,5.3
229,Poly(vinyl acetate),Homopolymer,Benzene,C6H6,,,,45000,,,,,a,305.15,,398.2,17.4,,,,92,5.38
229,Poly(vinyl acetate),Homopolymer,Benzene,C6H6,,,,45000,,,,,a,305.15,,413.2,13,,,,92,5.26
229,Poly(vinyl acetate),Homopolymer,Benzene,C6H6,,,,257000,,,,,,,,353.2,,,3.95,C,43,
230,Poly(vinyl acetate),Homopolymer,Benzene,C6H6,,,,257000,,,,,,,,373.2,,,3.56,C,43,
230,Poly(vinyl acetate),Homopolymer,Benzene,C6H6,,,,257000,,,,,,,,393.2,,,3.3,C,43,
230,Poly(vinyl acetate),Homopolymer,Benzene,C6H6,,,,331400,,,,,,,,373.2,32.1,,,,26,5.31
230,Poly(vinyl acetate),Homopolymer,Benzene,C6H6,,,,331400,,,,,,,,398.2,15.8,,,,26,5.93
230,Poly(vinyl acetate),Homopolymer,Benzene,C6H6,,,,331400,,,,,,,,423.2,10.1,,,,26,5.58
230,Poly(vinyl acetate),Homopolymer,Benzene,C6H6,,,,331400,,,,,,,,448.2,6.35,,,,26,5.74
230,Poly(vinyl acetate),Homopolymer,Benzene,C6H6,,47800,,435000,,,,,,,,374.1,42.1,,,,66,3.95
230,Poly(vinyl acetate),Homopolymer,Benzene,C6H6,,47800,,435000,,,,,,,,392.7,25.5,,,,66,4.15
230,Poly(vinyl acetate),Homopolymer,Benzene,C6H6,,47800,,435000,,,,,,,,413.2,15,,,,66,4.55
230,Poly(vinyl acetate),Homopolymer,Benzene,C6H6,,47800,,435000,,,,,,,,433,9.02,,,,66,5.22
230,Poly(vinyl acetate),Homopolymer,Benzene,C6H6,,83350,,331400,,,,,,,,373.2,31.1,,,,2,5.48
230,Poly(vinyl acetate),Homopolymer,Benzene,C6H6,,83350,,331400,,,,,,,,398.2,16.6,,,,2,5.64
230,Poly(vinyl acetate),Homopolymer,Benzene,C6H6,,83350,,331400,,,,,,,,398.2,16.8,,,,2,5.57
230,Poly(vinyl acetate),Homopolymer,Benzene,C6H6,,83350,,331400,,,,,,,,423.2,9.8,,,,2,5.75
230,Poly(vinyl acetate),Homopolymer,Benzene,C6H6,,83350,,331400,,,,,,,,423.2,9.9,,,,2,5.69
230,Poly(vinyl acetate),Homopolymer,Benzene,C6H6,,83350,,331400,,,,,,,,448.2,6.4,,,,2,5.7
230,Poly(vinyl acetate),Homopolymer,Benzene,C6H6,,83350,,331400,,,,,,,,448.2,6.2,,,,2,5.88
230,Poly(vinyl acetate),Homopolymer,Benzene,C6H6,,83350,,331400,,,,,,,,473.2,3.8,,,,2,6.61
230,Poly(vinyl acetate),Homopolymer,Benzene,C6H6,,83350,,331400,,,,,,,,473.2,4.1,,,,2,6.13
230,Poly(vinyl acetate),Homopolymer,Benzene,C6H6,,86000,,,,,,,,,,398.2,,,5.71,C,101,
230,Poly(vinyl acetate),Homopolymer,Benzene,C6H6,,86000,,,,,,,,,,408.2,,,5.72,C,53,
230,Poly(vinyl acetate),Homopolymer,Benzene,C6H6,,86000,,,,,,,,,,408.2,,,5.73,C,101,
230,Poly(vinyl acetate),Homopolymer,Benzene,C6H6,,86000,,,,,,,,,,418.2,,,5.72,C,101,
230,Poly(vinyl acetate),Homopolymer,Benzene,C6H6,,,,500000,,,,,,,,354,83.9,,,,66,3.47
230,Poly(vinyl acetate),Homopolymer,Benzene,C6H6,,,,500000,,,,,,,,372.5,43.8,,,,66,3.96
230,Poly(vinyl acetate),Homopolymer,Benzene,C6H6,,,,500000,,,,,,,,393.2,18.17,,,,97,5.76
230,Poly(vinyl acetate),Homopolymer,Benzene,C6H6,,,,500000,,,,,,,,395.8,22,,,,66,4.48
230,Poly(vinyl acetate),Homopolymer,Benzene,C6H6,,,,500000,,,,,,,,399.2,15.63,,,,97,5.86
230,Poly(vinyl acetate),Homopolymer,Benzene,C6H6,,,,500000,,,,,,,,405.2,14.3,,,,97,5.63
231,Poly(vinyl acetate),Homopolymer,Benzene,C6H6,,,,500000,,,,,,,,408.2,13.31,,,,97,5.68
231,Poly(vinyl acetate),Homopolymer,Benzene,C6H6,,,,500000,,,,,,,,411.2,13.34,,,,97,5.33
231,Poly(vinyl acetate),Homopolymer,Benzene,C6H6,,,,500000,,,,,,,,417.1,12.9,,,,66,4.9
231,Poly(vinyl acetate),Homopolymer,Benzene,C6H6,,,,500000,,,,,,,,417.2,11.01,,,,97,5.74
231,Poly(vinyl acetate),Homopolymer,Benzene,C6H6,,,,500000,,,,,,,,423.2,9.79,,,,97,5.75
231,Poly(vinyl acetate),Homopolymer,Benzene,C6H6,,,,1500000,,,,,,,,374.8,39.6,,,,66,4.13
231,Poly(vinyl acetate),Homopolymer,Benzene,C6H6,,,,1500000,,,,,,,,388.4,24.8,,,,66,4.71
231,Poly(vinyl acetate),Homopolymer,Benzene,C6H6,,,,1500000,,,,,,,,401.8,17.8,,,,66,4.86
231,Poly(vinyl acetate),Homopolymer,Benzene,C6H6,,,,1500000,,,,,,,,417.3,11.7,,,,66,5.38
231,Poly(vinyl acetate),Homopolymer,Benzene,C6H6,,,,,,141420,,,,,,353.2,,0.43,,C,28,
231,Poly(vinyl acetate),Homopolymer,Benzene,C6H6,,,,,,141420,,,,,,373.2,,0.4,,C,28,
231,Poly(vinyl acetate),Homopolymer,Cyclohexanone,C6H10O,,83350,,331400,,,,,,,,398.2,119.7,,,,2,4.61
231,Poly(vinyl acetate),Homopolymer,Cyclohexanone,C6H10O,,83350,,331400,,,,,,,,423.2,59.1,,,,2,4.66
231,Poly(vinyl acetate),Homopolymer,Cyclohexanone,C6H10O,,83350,,331400,,,,,,,,448.2,32.2,,,,2,4.71
231,Poly(vinyl acetate),Homopolymer,Cyclohexanone,C6H10O,,83350,,331400,,,,,,,,473.2,18.9,,,,2,4.79
231,Poly(vinyl acetate),Homopolymer,Cyclohexane,C6H12,,6700,,40000,,,,,,,,373.2,7.75,,,,20,21.1
231,Poly(vinyl acetate),Homopolymer,Cyclohexane,C6H12,,6700,,40000,,,,,,,,393.2,5.82,,,,20,17.5
231,Poly(vinyl acetate),Homopolymer,Cyclohexane,C6H12,,,a,45000,,,,,a,305.15,,398.2,5.83,,,,89,15.6
231,Poly(vinyl acetate),Homopolymer,Cyclohexane,C6H12,,,a,45000,,,,,a,305.15,,413.2,4.54,,,,89,14.7
231,Poly(vinyl acetate),Homopolymer,Cyclohexane,C6H12,,,,45000,,,,,a,305.15,,398.2,5.95,,,,92,15.3
231,Poly(vinyl acetate),Homopolymer,Cyclohexane,C6H12,,,,45000,,,,,a,305.15,,413.2,4.65,,,,92,14.4
231,Poly(vinyl acetate),Homopolymer,Cyclohexane,C6H12,,,,257000,,,,,,,,353.2,,,15.5,C,43,
231,Poly(vinyl acetate),Homopolymer,Cyclohexane,C6H12,,,,257000,,,,,,,,373.2,,,11.5,C,43,
231,Poly(vinyl acetate),Homopolymer,Cyclohexane,C6H12,,,,257000,,,,,,,,393.2,,,8.97,C,43,
231,Poly(vinyl acetate),Homopolymer,Cyclohexane,C6H12,,47800,,435000,,,,,,,,374.1,14.2,,,,66,11.3
232,Poly(vinyl acetate),Homopolymer,Cyclohexane,C6H12,,47800,,435000,,,,,,,,392.7,9.21,,,,66,11.2
232,Poly(vinyl acetate),Homopolymer,Cyclohexane,C6H12,,47800,,435000,,,,,,,,413.2,5.87,,,,66,11.4
232,Poly(vinyl acetate),Homopolymer,Cyclohexane,C6H12,,47800,,435000,,,,,,,,433,3.86,,,,66,12
232,Poly(vinyl acetate),Homopolymer,Cyclohexane,C6H12,,86000,,,,,,,,,,398.2,,,16.9,C,101,
232,Poly(vinyl acetate),Homopolymer,Cyclohexane,C6H12,,86000,,,,,,,,,,408.2,,,15.93,C,53,
232,Poly(vinyl acetate),Homopolymer,Cyclohexane,C6H12,,86000,,,,,,,,,,408.2,,,15.93,C,101,
232,Poly(vinyl acetate),Homopolymer,Cyclohexane,C6H12,,,,500000,,,,,,,,372.5,13.7,,,,66,12.2
232,Poly(vinyl acetate),Homopolymer,Cyclohexane,C6H12,,,,500000,,,,,,,,395.8,8.08,,,,66,11.9
232,Poly(vinyl acetate),Homopolymer,Cyclohexane,C6H12,,,,500000,,,,,,,,417.1,5.05,,,,66,12.3
232,Poly(vinyl acetate),Homopolymer,Cyclohexane,C6H12,,,,1500000,,,,,,,,374.8,14,,,,66,11.2
232,Poly(vinyl acetate),Homopolymer,Cyclohexane,C6H12,,,,1500000,,,,,,,,388.4,9.87,,,,66,11.5
232,Poly(vinyl acetate),Homopolymer,Cyclohexane,C6H12,,,,1500000,,,,,,,,401.8,7.17,,,,66,11.8
232,Poly(vinyl acetate),Homopolymer,Cyclohexane,C6H12,,,,1500000,,,,,,,,417.3,5.21,,,,66,11.9
232,Poly(vinyl acetate),Homopolymer,Cyclohexane,C6H12,,,,,,141420,,,,,,353.2,,2.24,,C,28,
232,Poly(vinyl acetate),Homopolymer,Cyclohexane,C6H12,,,,,,141420,,,,,,373.2,,1.64,,C,28,
232,Poly(vinyl acetate),Homopolymer,1-Hexene,C6H12,,47800,,435000,,,,,,,,374.1,8.76,,,,66,11.7
232,Poly(vinyl acetate),Homopolymer,1-Hexene,C6H12,,47800,,435000,,,,,,,,392.7,5.75,,,,66,11.9
232,Poly(vinyl acetate),Homopolymer,1-Hexene,C6H12,,47800,,435000,,,,,,,,413.2,3.56,,,,66,13
232,Poly(vinyl acetate),Homopolymer,1-Hexene,C6H12,,47800,,435000,,,,,,,,433,2.32,,,,66,14.4
232,Poly(vinyl acetate),Homopolymer,1-Hexene,C6H12,,,,500000,,,,,,,,363,8.67,,,,66,15.5
232,Poly(vinyl acetate),Homopolymer,1-Hexene,C6H12,,,,500000,,,,,,,,387.5,5.58,,,,66,13.7
232,Poly(vinyl acetate),Homopolymer,1-Hexene,C6H12,,,,500000,,,,,,,,401.8,4.31,,,,66,13.3
232,Poly(vinyl acetate),Homopolymer,1-Hexene,C6H12,,,,500000,,,,,,,,417.1,3.6,,,,66,12.1
232,Poly(vinyl acetate),Homopolymer,1-Hexene,C6H12,,,,1500000,,,,,,,,373.8,7.69,,,,66,13.5
232,Poly(vinyl acetate),Homopolymer,1-Hexene,C6H12,,,,1500000,,,,,,,,388.5,5.16,,,,66,14.5
232,Poly(vinyl acetate),Homopolymer,1-Hexene,C6H12,,,,1500000,,,,,,,,402.8,3.74,,,,66,15
232,Poly(vinyl acetate),Homopolymer,1-Hexene,C6H12,,,,1500000,,,,,,,,418.2,2.75,,,,66,15.5
233,Poly(vinyl acetate),Homopolymer,Cyclohexanol,C6H12O,,86000,,,,,,,,,,408.2,,,5.38,C,53,
233,Poly(vinyl acetate),Homopolymer,Cyclohexanol,C6H12O,,,,500000,,,,,,,,393.2,165.4,,,,97,5.71
233,Poly(vinyl acetate),Homopolymer,Cyclohexanol,C6H12O,,,,500000,,,,,,,,399.2,144.5,,,,97,5.17
233,Poly(vinyl acetate),Homopolymer,Cyclohexanol,C6H12O,,,,500000,,,,,,,,405.2,111.7,,,,97,5.35
233,Poly(vinyl acetate),Homopolymer,Cyclohexanol,C6H12O,,,,500000,,,,,,,,408.2,102,,,,97,5.25
233,Poly(vinyl acetate),Homopolymer,Cyclohexanol,C6H12O,,,,500000,,,,,,,,411.2,90.8,,,,97,5.3
233,Poly(vinyl acetate),Homopolymer,Cyclohexanol,C6H12O,,,,500000,,,,,,,,417.2,76.7,,,,97,5.11
233,Poly(vinyl acetate),Homopolymer,Cyclohexanol,C6H12O,,,,500000,,,,,,,,423.2,65.52,,,,97,4.9
233,Poly(vinyl acetate),Homopolymer,"2-Pentanone, 4-methyl",C6H12O,,47800,,435000,,,,,,,,374.1,75.9,,,,66,4.86
233,Poly(vinyl acetate),Homopolymer,"2-Pentanone, 4-methyl",C6H12O,,47800,,435000,,,,,,,,392.7,40.8,,,,66,5.32
233,Poly(vinyl acetate),Homopolymer,"2-Pentanone, 4-methyl",C6H12O,,47800,,435000,,,,,,,,413.2,22.6,,,,66,5.77
233,Poly(vinyl acetate),Homopolymer,"2-Pentanone, 4-methyl",C6H12O,,47800,,435000,,,,,,,,433,13.3,,,,66,6.36
233,Poly(vinyl acetate),Homopolymer,"2-Pentanone, 4-methyl",C6H12O,,83350,,331400,,,,,,,,398.2,26.3,,,,2,7.16
233,Poly(vinyl acetate),Homopolymer,"2-Pentanone, 4-methyl",C6H12O,,83350,,331400,,,,,,,,423.2,14.4,,,,2,7.23
233,Poly(vinyl acetate),Homopolymer,"2-Pentanone, 4-methyl",C6H12O,,83350,,331400,,,,,,,,448.2,8.8,,,,2,7.12
233,Poly(vinyl acetate),Homopolymer,"2-Pentanone, 4-methyl",C6H12O,,83350,,331400,,,,,,,,473.2,5.8,,,,2,6.96
233,Poly(vinyl acetate),Homopolymer,"2-Pentanone, 4-methyl",C6H12O,,,,500000,,,,,,,,363,122,,,,66,4.29
233,Poly(vinyl acetate),Homopolymer,"2-Pentanone, 4-methyl",C6H12O,,,,500000,,,,,,,,387.5,53.5,,,,66,4.67
233,Poly(vinyl acetate),Homopolymer,"2-Pentanone, 4-methyl",C6H12O,,,,500000,,,,,,,,401.8,33.8,,,,66,5.08
233,Poly(vinyl acetate),Homopolymer,"2-Pentanone, 4-methyl",C6H12O,,,,500000,,,,,,,,417.1,22.2,,,,66,5.37
233,Poly(vinyl acetate),Homopolymer,"2-Pentanone, 4-methyl",C6H12O,,,,1500000,,,,,,,,373.8,69.4,,,,66,5.36
233,Poly(vinyl acetate),Homopolymer,"2-Pentanone, 4-methyl",C6H12O,,,,1500000,,,,,,,,388.5,42.5,,,,66,5.72
233,Poly(vinyl acetate),Homopolymer,"2-Pentanone, 4-methyl",C6H12O,,,,1500000,,,,,,,,402.8,26.8,,,,66,6.25
233,Poly(vinyl acetate),Homopolymer,"2-Pentanone, 4-methyl",C6H12O,,,,1500000,,,,,,,,418.2,18.4,,,,66,6.32
234,Poly(vinyl acetate),Homopolymer,"Acetic acid, butyl ester",C6H12O2,,83350,,331400,,,,,,,,398.2,32.8,,,,2,6.4
234,Poly(vinyl acetate),Homopolymer,"Acetic acid, butyl ester",C6H12O2,,83350,,331400,,,,,,,,423.2,16.9,,,,2,6.52
234,Poly(vinyl acetate),Homopolymer,"Acetic acid, butyl ester",C6H12O2,,83350,,331400,,,,,,,,448.2,9.8,,,,2,6.52
234,Poly(vinyl acetate),Homopolymer,"Acetic acid, butyl ester",C6H12O2,,83350,,331400,,,,,,,,473.2,6.1,,,,2,6.58
234,Poly(vinyl acetate),Homopolymer,"Acetic acid, butyl ester",C6H12O2,,,,500000,,,,,,,,372.5,95.6,,,,66,4.83
234,Poly(vinyl acetate),Homopolymer,"Acetic acid, butyl ester",C6H12O2,,,,500000,,,,,,,,395.8,42.9,,,,66,5.23
234,Poly(vinyl acetate),Homopolymer,"Acetic acid, butyl ester",C6H12O2,,,,500000,,,,,,,,417.1,22.6,,,,66,5.65
234,Poly(vinyl acetate),Homopolymer,"Acetic acid, butyl ester",C6H12O2,,,,1500000,,,,,,,,374.8,86.5,,,,66,4.95
234,Poly(vinyl acetate),Homopolymer,"Acetic acid, butyl ester",C6H12O2,,,,1500000,,,,,,,,388.4,49.9,,,,66,5.58