Page,Solute,Solute_type,Solvent,Solvent_formula,MN_symbol,MN,MW_symbol,MW,MV_symbol,MV,per composition,per substitution,Tg_symbol,Tg (K),Note,T (K),Vg (cm3/g),chi_inf,omega_inf,U/C,Ref,calc_omega_inf
176,Polystyrene,Homopolymer,Pentane,C5H12,,110000,,116600,,,,,,,,423,2.6,,,,17,10.3
176,Polystyrene,Homopolymer,Pentane,C5H12,,110000,,116600,,,,,,,,448,1.8,,,,17,10.9
176,Polystyrene,Homopolymer,Pentane,C5H12,,110000,,116600,,,,,,,,473,1.28,,,,17,
176,Polystyrene,Homopolymer,Pentane,C5H12,,110000,,116600,,,,,,,,498,0.98,,,,17,
176,Polystyrene,Homopolymer,1-Pentanol,C5H12O,,20000,,,,,,,,351,,435.5,,,24.42,C,56,
176,Polystyrene,Homopolymer,1-Pentanol,C5H12O,,20000,,,,,,,,351,,445,,,22.27,C,56,
176,Polystyrene,Homopolymer,1-Pentanol,C5H12O,,20000,,,,,,,,351,,492.9,,,13.89,C,56,
177,Polystyrene,Homopolymer,1-Pentanol,C5H12O,,20000,,,,,,,,351,,502.6,,,11.69,C,56,
177,Polystyrene,Homopolymer,"Diethyleneglycol, monomethyl ether",C5H12O3,,61500,,103935,,,,,,,,433.2,37.2,,,,75,13.9
177,Polystyrene,Homopolymer,"Benzene, 1,2-dichloro",C6H4Cl2,,3524,,3876,,3600,,,,,,400,,,2.88,U,21,2.92
177,Polystyrene,Homopolymer,"Benzene, 1,2-dichloro",C6H4Cl2,,3524,,3876,,3600,,,,,,421.6,,,2.87,U,21,2.93
177,Polystyrene,Homopolymer,"Benzene, 1,2-dichloro",C6H4Cl2,,3524,,3876,,3600,,,,,,444.8,,,2.69,U,21,2.78
177,Polystyrene,Homopolymer,"Benzene, 1,2-dichloro",C6H4Cl2,,96200,,97600,,98200,,,,,40,396.5,,,3.1,U,21,3.14
177,Polystyrene,Homopolymer,"Benzene, 1,2-dichloro",C6H4Cl2,,96200,,97600,,98200,,,,,40,420,,,3.11,U,21,3.18
177,Polystyrene,Homopolymer,"Benzene, 1,2-dichloro",C6H4Cl2,,96200,,97600,,98200,,,,,40,447.5,,,2.93,U,21,3.04
177,Polystyrene,Homopolymer,"Benzene, 1,2-dichloro",C6H4Cl2,,1780000,,2145000,,1890000,,,,,41,395.5,,,3.66,U,21,3.7
177,Polystyrene,Homopolymer,"Benzene, 1,2-dichloro",C6H4Cl2,,1780000,,2145000,,1890000,,,,,41,420.9,,,3.37,U,21,3.44
177,Polystyrene,Homopolymer,"Benzene, 1,2-dichloro",C6H4Cl2,,1780000,,2145000,,1890000,,,,,41,445.9,,,3.22,U,21,3.33
177,Polystyrene,Homopolymer,"Benzene, chloro",C6H5Cl,,3524,,3876,,3600,,,,,,400,,,3.13,U,21,3.24
177,Polystyrene,Homopolymer,"Benzene, chloro",C6H5Cl,,3524,,3876,,3600,,,,,,421.6,,,2.96,U,21,3.12
177,Polystyrene,Homopolymer,"Benzene, chloro",C6H5Cl,,3524,,3876,,3600,,,,,,444.8,,,2.88,U,21,3.1
177,Polystyrene,Homopolymer,"Benzene, chloro",C6H5Cl,,20000,,,,,,,,351,,435.5,16.3,,,,56,6.11
177,Polystyrene,Homopolymer,"Benzene, chloro",C6H5Cl,,20000,,,,,,,,351,,445,14.15,,,,56,5.74
177,Polystyrene,Homopolymer,"Benzene, chloro",C6H5Cl,,20000,,,,,,,,351,,492.9,6.56,,,,56,5.21
177,Polystyrene,Homopolymer,"Benzene, chloro",C6H5Cl,,20000,,,,,,,,351,,502.6,6.48,,,,56,4.55
177,Polystyrene,Homopolymer,"Benzene, chloro",C6H5Cl,,96200,,97600,,98200,,,,,40,396.5,,,3.34,U,21,3.45
177,Polystyrene,Homopolymer,"Benzene, chloro",C6H5Cl,,96200,,97600,,98200,,,,,40,420,,,3.38,U,21,3.55
177,Polystyrene,Homopolymer,"Benzene, chloro",C6H5Cl,,96200,,97600,,98200,,,,,40,447.5,,,3.11,U,21,3.36
177,Polystyrene,Homopolymer,"Benzene, chloro",C6H5Cl,,97000,,102800,,,,,,,,423.2,,,3.72,C,1,
177,Polystyrene,Homopolymer,"Benzene, chloro",C6H5Cl,,97000,,102800,,,,,,,,448.2,,,3.85,C,1,
178,Polystyrene,Homopolymer,"Benzene, chloro",C6H5Cl,,97000,,102800,,,,,,,,473.2,,,4.04,C,1,
178,Polystyrene,Homopolymer,"Benzene, chloro",C6H5Cl,,1780000,,2145000,,1890000,,,,,41,395.5,,,4.14,U,21,4.27
178,Polystyrene,Homopolymer,"Benzene, chloro",C6H5Cl,,1780000,,2145000,,1890000,,,,,41,420.9,,,3.7,U,21,3.89
178,Polystyrene,Homopolymer,"Benzene, chloro",C6H5Cl,,1780000,,2145000,,1890000,,,,,41,445.9,,,3.36,U,21,3.62
178,Polystyrene,Homopolymer,"Benzene, fluoro",C6H5F,a,600,a,660,,,,,,,,313.2,,0.37,,C,31,
178,Polystyrene,Homopolymer,"Benzene, nitro",C6H5NO2,,20000,,,,,,,,351,,435.2,82.24,,,,56,8.03
178,Polystyrene,Homopolymer,"Benzene, nitro",C6H5NO2,,20000,,,,,,,,351,,445,67.33,,,,56,7.44
178,Polystyrene,Homopolymer,"Benzene, nitro",C6H5NO2,,20000,,,,,,,,351,,492.9,23.65,,,,56,6.51
178,Polystyrene,Homopolymer,"Benzene, nitro",C6H5NO2,,20000,,,,,,,,351,,502.6,20.15,,,,56,6.25
178,Polystyrene,Homopolymer,Benzene,C6H6,a,600,a,660,,,,,,,,313.2,,0.26,,C,31,
178,Polystyrene,Homopolymer,Benzene,C6H6,,1709,,1811,,,,,,,,413.2,,0.209,,C,19,
178,Polystyrene,Homopolymer,Benzene,C6H6,,,,2200,,,,,,,45,444.4,6.45,,,,52,6.01
178,Polystyrene,Homopolymer,Benzene,C6H6,,,,2200,,,,,,,45,452.5,5.69,,,,52,5.98
178,Polystyrene,Homopolymer,Benzene,C6H6,,,,2200,,,,,,,45,463,4.82,,,,52,6.02
178,Polystyrene,Homopolymer,Benzene,C6H6,,3524,,3876,,3600,,,,,,400,,,3.93,U,21,4.27
178,Polystyrene,Homopolymer,Benzene,C6H6,,3524,,3876,,3600,,,,,,421.6,,,3.8,U,21,4.26
178,Polystyrene,Homopolymer,Benzene,C6H6,,3524,,3876,,3600,,,,,,444.8,,,3.67,U,21,4.28
178,Polystyrene,Homopolymer,Benzene,C6H6,,,,4000,,,,,,,46,442.5,7,,,,52,5.72
178,Polystyrene,Homopolymer,Benzene,C6H6,,,,4000,,,,,,,46,463,5.07,,,,52,5.73
178,Polystyrene,Homopolymer,Benzene,C6H6,,,,4000,,,,,,,46,469.5,4.63,,,,52,5.71
178,Polystyrene,Homopolymer,Benzene,C6H6,,,,4000,,,,,,,46,471.7,4.45,,,,52,5.76
178,Polystyrene,Homopolymer,Benzene,C6H6,,16510,,17500,,,,,,,43,434.8,6.71,,,,52,6.8
178,Polystyrene,Homopolymer,Benzene,C6H6,,16510,,17500,,,,,,,43,442.5,5.87,,,,52,6.82
179,Polystyrene,Homopolymer,Benzene,C6H6,,16510,,17500,,,,,,,43,450.5,5.04,,,,52,6.97
179,Polystyrene,Homopolymer,Benzene,C6H6,,16510,,17500,,,,,,,43,460.8,4.29,,,,52,6.99
179,Polystyrene,Homopolymer,Benzene,C6H6,,20000,,,,,,,,351,,435.5,5.7,,,,56,7.91
179,Polystyrene,Homopolymer,Benzene,C6H6,,20000,,,,,,,,351,,445,4.94,,,,56,7.77
179,Polystyrene,Homopolymer,Benzene,C6H6,,20000,,,,,,,,351,,492.9,2.58,,,,56,7.52
179,Polystyrene,Homopolymer,Benzene,C6H6,,20000,,,,,,,,351,,502.6,3.1,,,,56,5.58
179,Polystyrene,Homopolymer,Benzene,C6H6,,50660,,53700,,,,,,,47,413,,,4.82,C,11,
179,Polystyrene,Homopolymer,Benzene,C6H6,,50660,,53700,,,,,,,47,423,,,4.85,C,11,
179,Polystyrene,Homopolymer,Benzene,C6H6,,50660,,53700,,,,,,,47,433,,,4.84,C,11,
179,Polystyrene,Homopolymer,Benzene,C6H6,,50660,,53700,,,,,,,47,443,,,4.86,C,11,
179,Polystyrene,Homopolymer,Benzene,C6H6,,50660,,53700,,,,,,,47,453,,,4.9,C,11,
179,Polystyrene,Homopolymer,Benzene,C6H6,,50660,,53700,,,,,,,47,463,,,4.91,C,11,
179,Polystyrene,Homopolymer,Benzene,C6H6,,76000,,82000,,,,,,368.45,42,413.2,12.73,,,,86,5.37
179,Polystyrene,Homopolymer,Benzene,C6H6,,76000,,82000,,,,,,368.45,42,423.2,10.55,,,,86,5.34
179,Polystyrene,Homopolymer,Benzene,C6H6,,76000,,82000,,,,,,368.45,42,433.2,8.82,,,,86,5.32
179,Polystyrene,Homopolymer,Benzene,C6H6,,76000,,82000,,,,,,368.45,42,453.2,6.31,,,,86,5.34
179,Polystyrene,Homopolymer,Benzene,C6H6,,76000,,82000,,,,,,368.45,42,473.2,4.64,,,,86,5.41
179,Polystyrene,Homopolymer,Benzene,C6H6,,77000,,78000,,,,,,368.65,48,423.2,11.96,,,,86,4.71
179,Polystyrene,Homopolymer,Benzene,C6H6,,,,,,66000,,,,,,393.2,,0.325,,U,57,
179,Polystyrene,Homopolymer,Benzene,C6H6,,96200,,97600,,98200,,,,,40,396.5,,,4.43,U,21,4.8
179,Polystyrene,Homopolymer,Benzene,C6H6,,96200,,97600,,98200,,,,,40,420,,,4.27,U,21,4.78
179,Polystyrene,Homopolymer,Benzene,C6H6,,96200,,97600,,98200,,,,,40,447.5,,,3.98,U,21,4.67
179,Polystyrene,Homopolymer,Benzene,C6H6,,97000,,102800,,,,,,,,423.2,,,5.44,C,1,
179,Polystyrene,Homopolymer,Benzene,C6H6,,97000,,102800,,,,,,,,448.2,,,5.67,C,1,
179,Polystyrene,Homopolymer,Benzene,C6H6,,97000,,102800,,,,,,,,473.2,,,5.81,C,1,
179,Polystyrene,Homopolymer,Benzene,C6H6,,,,107000,,,,,,,49,444.4,5.92,,,,52,6.55
179,Polystyrene,Homopolymer,Benzene,C6H6,,,,107000,,,,,,,49,451,5.16,,,,52,6.76
179,Polystyrene,Homopolymer,Benzene,C6H6,,,,107000,,,,,,,49,463,4.3,,,,52,6.75
179,Polystyrene,Homopolymer,Benzene,C6H6,,,,107000,,,,,,,49,473.9,3.67,,,,52,6.77
180,Polystyrene,Homopolymer,Benzene,C6H6,,110000,,116600,,,,,,,,423,13.1,,,,17,4.31
180,Polystyrene,Homopolymer,Benzene,C6H6,,110000,,116600,,,,,,,,448,7.75,,,,17,4.72
180,Polystyrene,Homopolymer,Benzene,C6H6,,110000,,116600,,,,,,,,473,4.93,,,,17,5.1
180,Polystyrene,Homopolymer,Benzene,C6H6,,110000,,116600,,,,,,,,498,3.4,,,,17,5.37
180,Polystyrene,Homopolymer,Benzene,C6H6,,,,120000,,,,,,,,433.2,,,4.98,C,4,
180,Polystyrene,Homopolymer,Benzene,C6H6,,,,120000,,,,,,,,443.2,,,4.91,C,4,
180,Polystyrene,Homopolymer,Benzene,C6H6,,,,120000,,,,,,,,453.2,,,4.88,C,4,
180,Polystyrene,Homopolymer,Benzene,C6H6,,120000,,266000,,,,,,,,383.2,,,4.33,C,102,
180,Polystyrene,Homopolymer,Benzene,C6H6,,120000,,266000,,,,,,,,393.3,,,4.52,C,102,
180,Polystyrene,Homopolymer,Benzene,C6H6,,120000,,266000,,,,,,,,393.4,,,4.29,C,102,
180,Polystyrene,Homopolymer,Benzene,C6H6,,120000,,266000,,,,,,,,403.4,,,4.61,C,102,
180,Polystyrene,Homopolymer,Benzene,C6H6,,120000,,266000,,,,,,,,403.6,,,4.51,C,102,
180,Polystyrene,Homopolymer,Benzene,C6H6,,120000,,266000,,,,,,,,413.8,,,4.63,C,102,
180,Polystyrene,Homopolymer,Benzene,C6H6,,162000,,270000,,,,,,371.35,50,423.2,11.14,,,,86,5.06
180,Polystyrene,Homopolymer,Benzene,C6H6,,190000,,,,,,,,,,423.2,,,6.45,C,59,
180,Polystyrene,Homopolymer,Benzene,C6H6,,190000,,,,,,,,,,448.2,,,6.44,C,59,
180,Polystyrene,Homopolymer,Benzene,C6H6,,190000,,,,,,,,,,473.2,,,6.3,C,59,
180,Polystyrene,Homopolymer,Benzene,C6H6,,300000,,550000,,,,,,,51,423.2,11.1,,,,86,5.07
180,Polystyrene,Homopolymer,Benzene,C6H6,,420000,,450000,,,,,,372.15,52,423.2,12.16,,,,86,4.63
180,Polystyrene,Homopolymer,Benzene,C6H6,,,,560000,,,,,,370.25,53,423.2,13.22,,,,86,4.26
180,Polystyrene,Homopolymer,Benzene,C6H6,,,,1800000,,,,,,,54,431,8.43,,,,52,5.79
180,Polystyrene,Homopolymer,Benzene,C6H6,,,,1800000,,,,,,,54,442.5,6.82,,,,52,5.87
180,Polystyrene,Homopolymer,Benzene,C6H6,,,,1800000,,,,,,,54,452.5,5.66,,,,52,6.01
180,Polystyrene,Homopolymer,Benzene,C6H6,,,,1800000,,,,,,,54,460.8,4.99,,,,52,6.01
180,Polystyrene,Homopolymer,Benzene,C6H6,,1780000,,2145000,,1890000,,,,,41,395.5,,,5.33,U,21,5.76
180,Polystyrene,Homopolymer,Benzene,C6H6,,1780000,,2145000,,1890000,,,,,41,420.9,,,4.86,U,21,5.45
180,Polystyrene,Homopolymer,Benzene,C6H6,,1780000,,2145000,,1890000,,,,,41,445.9,,,4.26,U,21,4.98
181,Polystyrene,Homopolymer,Aniline,C6H7N,,20000,,,,,,,,351,,435.5,50.54,,,,56,8.93
181,Polystyrene,Homopolymer,Aniline,C6H7N,,20000,,,,,,,,351,,445,39.51,,,,56,8.79
181,Polystyrene,Homopolymer,Aniline,C6H7N,,20000,,,,,,,,351,,492.9,15.07,,,,56,7.57
181,Polystyrene,Homopolymer,Aniline,C6H7N,,20000,,,,,,,,351,,502.6,13.83,,,,56,6.82
181,Polystyrene,Homopolymer,Cyclohexanone,C6H10O,,20000,,,,,,,,351,,435.5,20.9,,,,56,9.72
181,Polystyrene,Homopolymer,Cyclohexanone,C6H10O,,20000,,,,,,,,351,,445,18.13,,,,56,8.98
181,Polystyrene,Homopolymer,Cyclohexanone,C6H10O,,20000,,,,,,,,351,,492.9,8.57,,,,56,7.35
181,Polystyrene,Homopolymer,Cyclohexanone,C6H10O,,20000,,,,,,,,351,,502.6,8.02,,,,56,6.67
181,Polystyrene,Homopolymer,Cyclohexanone,C6H10O,,97000,,102800,,,,,,,,423.2,,,5.81,C,1,
181,Polystyrene,Homopolymer,Cyclohexanone,C6H10O,,97000,,102800,,,,,,,,448.2,,,6.14,C,1,
181,Polystyrene,Homopolymer,Cyclohexanone,C6H10O,,97000,,102800,,,,,,,,473.2,,,6.26,C,1,
181,Polystyrene,Homopolymer,Cyclohexane,C6H12,a,600,a,660,,,,,,,,313.2,,0.64,,C,31,
181,Polystyrene,Homopolymer,Cyclohexane,C6H12,,1709,,1811,,,,,,,,413.2,,0.524,,C,19,
181,Polystyrene,Homopolymer,Cyclohexane,C6H12,,16510,,17500,,,,,,,43,423,,,6.75,C,38,
181,Polystyrene,Homopolymer,Cyclohexane,C6H12,,20000,,,,,,,,351,,435.5,3.21,,,,56,13.9
181,Polystyrene,Homopolymer,Cyclohexane,C6H12,,20000,,,,,,,,351,,445,2.88,,,,56,13.2
181,Polystyrene,Homopolymer,Cyclohexane,C6H12,,20000,,,,,,,,351,,492.9,1.67,,,,56,11.5
181,Polystyrene,Homopolymer,Cyclohexane,C6H12,,20000,,,,,,,,351,,502.6,1.99,,,,56,8.64
181,Polystyrene,Homopolymer,Cyclohexane,C6H12,,50660,,53700,,,,,,,47,403,,,7.33,C,11,
181,Polystyrene,Homopolymer,Cyclohexane,C6H12,,50660,,53700,,,,,,,47,418,,,7.03,C,11,
181,Polystyrene,Homopolymer,Cyclohexane,C6H12,,50660,,53700,,,,,,,47,423,,,6.95,C,11,
181,Polystyrene,Homopolymer,Cyclohexane,C6H12,,50660,,53700,,,,,,,47,433,,,6.85,C,11,
181,Polystyrene,Homopolymer,Cyclohexane,C6H12,,50660,,53700,,,,,,,47,443,,,6.95,C,11,
181,Polystyrene,Homopolymer,Cyclohexane,C6H12,,50660,,53700,,,,,,,47,448,,,6.98,C,11,
181,Polystyrene,Homopolymer,Cyclohexane,C6H12,,50660,,53700,,,,,,,47,463,,,6.95,C,11,
182,Polystyrene,Homopolymer,Cyclohexane,C6H12,,76000,,82000,,,,,,368.45,42,413.2,7,,,,86,9.56
182,Polystyrene,Homopolymer,Cyclohexane,C6H12,,76000,,82000,,,,,,368.45,42,423.2,,,9.2,C,86,
182,Polystyrene,Homopolymer,Cyclohexane,C6H12,,76000,,82000,,,,,,368.45,42,433.2,5.29,,,,86,8.75
182,Polystyrene,Homopolymer,Cyclohexane,C6H12,,76000,,82000,,,,,,368.45,42,453.2,4.1,,,,86,8.13
182,Polystyrene,Homopolymer,Cyclohexane,C6H12,,76000,,82000,,,,,,368.45,42,473.2,3.25,,,,86,7.67
182,Polystyrene,Homopolymer,Cyclohexane,C6H12,,97000,,102800,,,,,,,,423.2,,,12.2,C,1,
182,Polystyrene,Homopolymer,Cyclohexane,C6H12,,97000,,102800,,,,,,,,448.2,,,10.5,C,1,
182,Polystyrene,Homopolymer,Cyclohexane,C6H12,,97000,,102800,,,,,,,,473.2,,,8.92,C,1,
182,Polystyrene,Homopolymer,Cyclohexane,C6H12,,110000,,116600,,,,,,,,423.2,,,11,C,9,
182,Polystyrene,Homopolymer,Cyclohexane,C6H12,,110000,,116600,,,,,,,,498,2.72,,,,17,6.67
182,Polystyrene,Homopolymer,Cyclohexane,C6H12,,,,120000,,,,,,,,433.2,,,7.85,C,4,
182,Polystyrene,Homopolymer,Cyclohexane,C6H12,,,,120000,,,,,,,,443.2,,,7.51,C,4,
182,Polystyrene,Homopolymer,Cyclohexane,C6H12,,,,120000,,,,,,,,453.2,,,7.36,C,4,
182,Polystyrene,Homopolymer,Hexanone (isomer not specified),C6H12O,,,,,,,,,,,,298.4,,1.757,,C,32,
182,Polystyrene,Homopolymer,Hexanone (isomer not specified),C6H12O,,,,,,,,,,,,323.7,,0.753,,C,32,
182,Polystyrene,Homopolymer,Hexanone (isomer not specified),C6H12O,,,,,,,,,,,,345.6,,0.518,,C,32,
182,Polystyrene,Homopolymer,Hexanone (isomer not specified),C6H12O,,,,,,,,,,,,363.7,,0.432,,C,32,
182,Polystyrene,Homopolymer,Hexanone (isomer not specified),C6H12O,,,,,,,,,,,,383.7,,0.424,,C,32,
182,Polystyrene,Homopolymer,Hexanone (isomer not specified),C6H12O,,,,,,,,,,,,418.7,,1.25,,C,32,
182,Polystyrene,Homopolymer,"Acetic acid, butyl ester",C6H12O2,,1709,,1811,,,,,,,,413.2,,0.492,,C,19,
182,Polystyrene,Homopolymer,"Acetic acid, butyl ester",C6H12O2,,20000,,,,,,,,351,,435.5,7.55,,,,56,11
182,Polystyrene,Homopolymer,"Acetic acid, butyl ester",C6H12O2,,20000,,,,,,,,351,,445,6.8,,,,56,10
182,Polystyrene,Homopolymer,"Acetic acid, butyl ester",C6H12O2,,20000,,,,,,,,351,,492.9,2.54,,,,56,11.5
182,Polystyrene,Homopolymer,"Acetic acid, butyl ester",C6H12O2,,20000,,,,,,,,351,,502.6,3.46,,,,56,7.33
183,Polystyrene,Homopolymer,"Acetic acid, tert-butyl ester",C6H12O2,,164700,,303000,,,,,,,,416.3,7.57,,,,34,8.36
183,Polystyrene,Homopolymer,"Acetic acid, tert-butyl ester",C6H12O2,,164700,,303000,,,,,,,,418.6,7.164,,,,34,8.42
183,Polystyrene,Homopolymer,"Acetic acid, tert-butyl ester",C6H12O2,,164700,,303000,,,,,,,,421,6.908,,,,34,8.31
183,Polystyrene,Homopolymer,"Acetic acid, tert-butyl ester",C6H12O2,,164700,,303000,,,,,,,,426.2,6.361,,,,34,8.14
183,Polystyrene,Homopolymer,"Acetic acid, tert-butyl ester",C6H12O2,,164700,,303000,,,,,,,,431,5.907,,,,34,7.98
183,Polystyrene,Homopolymer,"Acetic acid, tert-butyl ester",C6H12O2,,164700,,303000,,,,,,,,435,5.601,,,,34,7.81
183,Polystyrene,Homopolymer,"Acetic acid, tert-butyl ester",C6H12O2,,164700,,303000,,,,,,,,440.1,5.077,,,,34,7.85
183,Polystyrene,Homopolymer,"Acetic acid, tert-butyl ester",C6H12O2,,164700,,303000,,,,,,,,445.8,4.597,,,,34,7.85
183,Polystyrene,Homopolymer,"Acetic acid, tert-butyl ester",C6H12O2,,164700,,303000,,,,,,,,451.7,4.243,,,,34,7.69
183,Polystyrene,Homopolymer,"Acetic acid, tert-butyl ester",C6H12O2,,164700,,303000,,,,,,,,456.2,3.919,,,,34,7.74
183,Polystyrene,Homopolymer,Hexane,C6H14,a,600,a,660,,,,,,,,313.2,,0.97,,C,31,
183,Polystyrene,Homopolymer,Hexane,C6H14,,20000,,,,,,,,351,,435.5,1.57,,,,56,22.5
183,Polystyrene,Homopolymer,Hexane,C6H14,,20000,,,,,,,,351,,445,1.71,,,,56,17.8
183,Polystyrene,Homopolymer,Hexane,C6H14,,20000,,,,,,,,351,,492.9,1.44,,,,56,11.5
183,Polystyrene,Homopolymer,Hexane,C6H14,,20000,,,,,,,,351,,502.6,1.85,,,,56,8.27
183,Polystyrene,Homopolymer,Hexane,C6H14,,50660,,53700,,,,,,,47,403,,,12.38,C,11,
183,Polystyrene,Homopolymer,Hexane,C6H14,,50660,,53700,,,,,,,47,418,,,11.61,C,11,
183,Polystyrene,Homopolymer,Hexane,C6H14,,50660,,53700,,,,,,,47,423,,,11.36,C,11,
183,Polystyrene,Homopolymer,Hexane,C6H14,,50660,,53700,,,,,,,47,433,,,11,C,11,
183,Polystyrene,Homopolymer,Hexane,C6H14,,50660,,53700,,,,,,,47,443,,,10.46,C,11,
183,Polystyrene,Homopolymer,Hexane,C6H14,,50660,,53700,,,,,,,47,448,,,10.33,C,11,
183,Polystyrene,Homopolymer,Hexane,C6H14,,50660,,53700,,,,,,,47,463,,,9.83,C,11,
183,Polystyrene,Homopolymer,Hexane,C6H14,,110000,,116600,,,,,,,,423,4.4,,,,17,9.86
183,Polystyrene,Homopolymer,Hexane,C6H14,,110000,,116600,,,,,,,,423.2,,,11.5,C,9,
183,Polystyrene,Homopolymer,Hexane,C6H14,,110000,,116600,,,,,,,,448,2.8,,,,17,10.4
183,Polystyrene,Homopolymer,Hexane,C6H14,,110000,,116600,,,,,,,,473,1.93,,,,17,10.8
183,Polystyrene,Homopolymer,Hexane,C6H14,,110000,,116600,,,,,,,,498,1.47,,,,17,10.8
184,Polystyrene,Homopolymer,"Pentane, 2-methyl",C6H14,,50660,,53700,,,,,,,47,403,,,15.36,C,11,
184,Polystyrene,Homopolymer,"Pentane, 2-methyl",C6H14,,50660,,53700,,,,,,,47,418,,,13.03,C,11,
184,Polystyrene,Homopolymer,"Pentane, 2-methyl",C6H14,,50660,,53700,,,,,,,47,423,,,13.71,C,11,
184,Polystyrene,Homopolymer,"Pentane, 2-methyl",C6H14,,50660,,53700,,,,,,,47,433,,,12.95,C,11,
184,Polystyrene,Homopolymer,"Pentane, 2-methyl",C6H14,,50660,,53700,,,,,,,47,443,,,12.96,C,11,
184,Polystyrene,Homopolymer,"Pentane, 2-methyl",C6H14,,50660,,53700,,,,,,,47,448,,,13.4,C,11,
184,Polystyrene,Homopolymer,"Pentane, 2-methyl",C6H14,,50660,,53700,,,,,,,47,463,,,12.31,C,11,
184,Polystyrene,Homopolymer,"Pentane, 3-methyl",C6H14,,50660,,53700,,,,,,,47,403,,,13.51,C,11,
184,Polystyrene,Homopolymer,"Pentane, 3-methyl",C6H14,,50660,,53700,,,,,,,47,418,,,12.98,C,11,
184,Polystyrene,Homopolymer,"Pentane, 3-methyl",C6H14,,50660,,53700,,,,,,,47,423,,,12.7,C,11,
184,Polystyrene,Homopolymer,"Pentane, 3-methyl",C6H14,,50660,,53700,,,,,,,47,433,,,12.29,C,11,
184,Polystyrene,Homopolymer,"Pentane, 3-methyl",C6H14,,50660,,53700,,,,,,,47,443,,,11.91,C,11,
184,Polystyrene,Homopolymer,"Pentane, 3-methyl",C6H14,,50660,,53700,,,,,,,47,448,,,11.42,C,11,
184,Polystyrene,Homopolymer,"Pentane, 3-methyl",C6H14,,50660,,53700,,,,,,,47,463,,,11.46,C,11,
184,Polystyrene,Homopolymer,"Ether, diisopropyl",C6H14O,a,600,a,660,,,,,,,,313.2,,0.78,,C,31,
184,Polystyrene,Homopolymer,"Ether, diisopropyl",C6H14O,,20000,,,,,,,,351,,435.5,,,22.05,C,56,
184,Polystyrene,Homopolymer,"Ether, diisopropyl",C6H14O,,20000,,,,,,,,351,,445,,,15.53,C,56,
184,Polystyrene,Homopolymer,"Ether, diisopropyl",C6H14O,,20000,,,,,,,,351,,492.9,,,11.32,C,56,
184,Polystyrene,Homopolymer,"Ether, diisopropyl",C6H14O,,20000,,,,,,,,351,,502.6,,,11.32,C,56,
184,Polystyrene,Homopolymer,Benzaldehyde,C7H6O,,20000,,,,,,,,351,,435.5,39.25,,,,56,8.56
184,Polystyrene,Homopolymer,Benzaldehyde,C7H6O,,20000,,,,,,,,351,,445,31.86,,,,56,8.17
184,Polystyrene,Homopolymer,Benzaldehyde,C7H6O,,20000,,,,,,,,351,,492.9,13.92,,,,56,6.25
185,Polystyrene,Homopolymer,Benzaldehyde,C7H6O,,20000,,,,,,,,351,,502.6,11.93,,,,56,6.05
185,Polystyrene,Homopolymer,Toluene,C7H8,a,600,a,660,,,,,,,,313.2,,0.19,,C,31,
185,Polystyrene,Homopolymer,Toluene,C7H8,,,,2200,,,,,,,45,423.7,17.23,,,,52,5.57
185,Polystyrene,Homopolymer,Toluene,C7H8,,,,2200,,,,,,,45,432.9,13.85,,,,52,5.73
185,Polystyrene,Homopolymer,Toluene,C7H8,,,,2200,,,,,,,45,458.7,8.58,,,,52,5.7
185,Polystyrene,Homopolymer,Toluene,C7H8,,3524,,3876,,3600,,,,,,400,,,3.93,U,21,4.17
185,Polystyrene,Homopolymer,Toluene,C7H8,,3524,,3876,,3600,,,,,,421.6,,,3.96,U,21,4.3
185,Polystyrene,Homopolymer,Toluene,C7H8,,3524,,3876,,3600,,,,,,444.8,,,3.72,U,21,4.17
185,Polystyrene,Homopolymer,Toluene,C7H8,,,,4000,,,,,,,46,432.9,11.02,,,,52,7.2
185,Polystyrene,Homopolymer,Toluene,C7H8,,,,4000,,,,,,,46,442.5,9.35,,,,52,7.03
185,Polystyrene,Homopolymer,Toluene,C7H8,,,,4000,,,,,,,46,450.5,7.94,,,,52,7.13
185,Polystyrene,Homopolymer,Toluene,C7H8,,10300,,10920,,,,,,,44,321.7,438.1,,,,87,4.94
185,Polystyrene,Homopolymer,Toluene,C7H8,,16510,,17500,,,,,,,43,442.5,10.8,,,,52,6.08