Page,Solute,Solute_type,Solvent,Solvent_formula,MN_symbol,MN,MW_symbol,MW,MV_symbol,MV,per composition,per substitution,Tg_symbol,Tg (K),Note,T (K),Vg (cm3/g),chi_inf,omega_inf,U/C,Ref,calc_omega_inf
242,Poly(vinyl acetate),Homopolymer,Nonane,C9H20,,86000,,,,,,,,,,408.2,,,34.15,,101,
242,Poly(vinyl acetate),Homopolymer,Nonane,C9H20,,86000,,,,,,,,,,418.2,,,31.78,,101,
242,Poly(vinyl acetate),Homopolymer,Nonane,C9H20,,,,500000,,,,,,,,363,40.8,,,,66,31
242,Poly(vinyl acetate),Homopolymer,Nonane,C9H20,,,,500000,,,,,,,,387.5,20.1,,,,66,26.4
242,Poly(vinyl acetate),Homopolymer,Nonane,C9H20,,,,500000,,,,,,,,393.2,11.46,,,,97,38.7
242,Poly(vinyl acetate),Homopolymer,Nonane,C9H20,,,,500000,,,,,,,,399.2,9.63,,,,97,38.3
243,Poly(vinyl acetate),Homopolymer,Nonane,C9H20,,,,500000,,,,,,,,401.8,13.3,,,,66,25.6
243,Poly(vinyl acetate),Homopolymer,Nonane,C9H20,,,,500000,,,,,,,,405.2,9.03,,,,97,34.2
243,Poly(vinyl acetate),Homopolymer,Nonane,C9H20,,,,500000,,,,,,,,408.2,8.15,,,,97,34.7
243,Poly(vinyl acetate),Homopolymer,Nonane,C9H20,,,,500000,,,,,,,,411.2,7.47,,,,97,34.8
243,Poly(vinyl acetate),Homopolymer,Nonane,C9H20,,,,500000,,,,,,,,417.1,8.94,,,,66,24.7
243,Poly(vinyl acetate),Homopolymer,Nonane,C9H20,,,,500000,,,,,,,,417.2,6.88,,,,97,32.1
243,Poly(vinyl acetate),Homopolymer,Nonane,C9H20,,,,500000,,,,,,,,423.2,6.02,,,,97,31.3
243,Poly(vinyl acetate),Homopolymer,Nonane,C9H20,,,,1500000,,,,,,,,373.8,26.8,,,,66,31.6
243,Poly(vinyl acetate),Homopolymer,Nonane,C9H20,,,,1500000,,,,,,,,388.5,16.8,,,,66,30.6
243,Poly(vinyl acetate),Homopolymer,Nonane,C9H20,,,,1500000,,,,,,,,402.8,11.2,,,,66,29.5
243,Poly(vinyl acetate),Homopolymer,Nonane,C9H20,,,,1500000,,,,,,,,418.2,7.61,,,,66,28.2
243,Poly(vinyl acetate),Homopolymer,Tetralin,C10H12,,86000,,,,,,,,,,398.2,,,7.76,C,101,
243,Poly(vinyl acetate),Homopolymer,Tetralin,C10H12,,86000,,,,,,,,,,408.2,,,7.52,C,101,
243,Poly(vinyl acetate),Homopolymer,Tetralin,C10H12,,86000,,,,,,,,,,418.2,,,7.3,C,101,
243,Poly(vinyl acetate),Homopolymer,"Benzene, butyl",C10H14,,86000,,,,,,,,,,398.2,,,10.03,C,101,
243,Poly(vinyl acetate),Homopolymer,"Benzene, butyl",C10H14,,86000,,,,,,,,,,408.2,,,9.68,C,101,
243,Poly(vinyl acetate),Homopolymer,"Benzene, butyl",C10H14,,86000,,,,,,,,,,418.2,,,9.43,C,101,
243,Poly(vinyl acetate),Homopolymer,Decalin (cis),C10H18,,86000,,,,,,,,,,398.2,,,19.17,C,101,
243,Poly(vinyl acetate),Homopolymer,Decalin (cis),C10H18,,86000,,,,,,,,,,408.2,,,17.67,C,101,
243,Poly(vinyl acetate),Homopolymer,Decalin (cis),C10H18,,86000,,,,,,,,,,418.2,,,16.54,C,101,
243,Poly(vinyl acetate),Homopolymer,"Cyclohexane, butyl",C10H20,,86000,,,,,,,,,,398.2,,,27.92,C,101,
244,Poly(vinyl acetate),Homopolymer,"Cyclohexane, butyl",C10H20,,86000,,,,,,,,,,408.2,,,25.73,C,101,
244,Poly(vinyl acetate),Homopolymer,"Cyclohexane, butyl",C10H20,,86000,,,,,,,,,,418.2,,,24.22,C,101,
244,Poly(vinyl acetate),Homopolymer,1-Decene,C10H20,,47800,,435000,,,,,,,,374.1,66,,,,66,22
244,Poly(vinyl acetate),Homopolymer,1-Decene,C10H20,,47800,,435000,,,,,,,,392.7,34.8,,,,66,21.3
244,Poly(vinyl acetate),Homopolymer,1-Decene,C10H20,,47800,,435000,,,,,,,,413.2,18.9,,,,66,20.5
244,Poly(vinyl acetate),Homopolymer,1-Decene,C10H20,,47800,,435000,,,,,,,,433,11.2,,,,66,20
244,Poly(vinyl acetate),Homopolymer,1-Decene,C10H20,,,,500000,,,,,,,,363,108,,,,66,21
244,Poly(vinyl acetate),Homopolymer,1-Decene,C10H20,,,,500000,,,,,,,,387.5,42.1,,,,66,21.1
244,Poly(vinyl acetate),Homopolymer,1-Decene,C10H20,,,,500000,,,,,,,,401.8,26,,,,66,21.1
244,Poly(vinyl acetate),Homopolymer,1-Decene,C10H20,,,,500000,,,,,,,,417.1,16.8,,,,66,20.6
244,Poly(vinyl acetate),Homopolymer,1-Decene,C10H20,,,,1500000,,,,,,,,373.8,57.4,,,,66,25.6
244,Poly(vinyl acetate),Homopolymer,1-Decene,C10H20,,,,1500000,,,,,,,,388.5,33.4,,,,66,25.6
244,Poly(vinyl acetate),Homopolymer,1-Decene,C10H20,,,,1500000,,,,,,,,402.8,22.2,,,,66,24
244,Poly(vinyl acetate),Homopolymer,1-Decene,C10H20,,,,1500000,,,,,,,,418.2,14.7,,,,66,22.8
244,Poly(vinyl acetate),Homopolymer,Decane,C10H22,,47800,,435000,,,,,,,,374.1,50.9,,,,66,32.7
244,Poly(vinyl acetate),Homopolymer,Decane,C10H22,,47800,,435000,,,,,,,,392.7,27.1,,,,66,30.8
244,Poly(vinyl acetate),Homopolymer,Decane,C10H22,,47800,,435000,,,,,,,,413.2,14.9,,,,66,28.6
244,Poly(vinyl acetate),Homopolymer,Decane,C10H22,,47800,,435000,,,,,,,,433,8.5,,,,66,28.3
244,Poly(vinyl acetate),Homopolymer,Decane,C10H22,,86000,,,,,,,,,,398.2,,,41.32,C,101,
244,Poly(vinyl acetate),Homopolymer,Decane,C10H22,,86000,,,,,,,,,,408.2,,,38.04,C,53,
244,Poly(vinyl acetate),Homopolymer,Decane,C10H22,,86000,,,,,,,,,,408.2,,,38.04,C,101,
244,Poly(vinyl acetate),Homopolymer,Decane,C10H22,,86000,,,,,,,,,,418.2,,,35.13,C,101,
244,Poly(vinyl acetate),Homopolymer,Decane,C10H22,,,,500000,,,,,,,,363,74.4,,,,66,35.2
244,Poly(vinyl acetate),Homopolymer,Decane,C10H22,,,,500000,,,,,,,,387.5,32.5,,,,66,30.9
244,Poly(vinyl acetate),Homopolymer,Decane,C10H22,,,,500000,,,,,,,,393.2,18.88,,,,97,43.4
245,Poly(vinyl acetate),Homopolymer,Decane,C10H22,,,,500000,,,,,,,,399.2,16.14,,,,97,41.4
245,Poly(vinyl acetate),Homopolymer,Decane,C10H22,,,,500000,,,,,,,,401.8,20.5,,,,66,29.9
245,Poly(vinyl acetate),Homopolymer,Decane,C10H22,,,,500000,,,,,,,,405.2,14.41,,,,97,38.1
245,Poly(vinyl acetate),Homopolymer,Decane,C10H22,,,,500000,,,,,,,,408.2,13.07,,,,97,38.1
245,Poly(vinyl acetate),Homopolymer,Decane,C10H22,,,,500000,,,,,,,,411.2,11.66,,,,97,38.9
245,Poly(vinyl acetate),Homopolymer,Decane,C10H22,,,,500000,,,,,,,,417.1,13.5,,,,66,28
245,Poly(vinyl acetate),Homopolymer,Decane,C10H22,,,,500000,,,,,,,,417.2,11.28,,,,97,33.5
245,Poly(vinyl acetate),Homopolymer,Decane,C10H22,,,,500000,,,,,,,,423.2,9.13,,,,97,34.7
245,Poly(vinyl acetate),Homopolymer,Decane,C10H22,,,,1500000,,,,,,,,373.8,44.3,,,,66,38
245,Poly(vinyl acetate),Homopolymer,Decane,C10H22,,,,1500000,,,,,,,,388.5,25.8,,,,66,37.5
245,Poly(vinyl acetate),Homopolymer,Decane,C10H22,,,,1500000,,,,,,,,402.8,17.5,,,,66,33.8
245,Poly(vinyl acetate),Homopolymer,Decane,C10H22,,,,1500000,,,,,,,,418.2,11.4,,,,66,32.1
245,Poly(vinyl acetate),Homopolymer,"Hexane, 3,3,4,4-tetramethyl",C10H22,,86000,,,,,,,,,,398.2,,,24.08,C,101,
245,Poly(vinyl acetate),Homopolymer,"Hexane, 3,3,4,4-tetramethyl",C10H22,,86000,,,,,,,,,,408.2,,,22.43,C,101,
245,Poly(vinyl acetate),Homopolymer,"Hexane, 3,3,4,4-tetramethyl",C10H22,,86000,,,,,,,,,,418.2,,,20.81,C,101,
245,Poly(vinyl acetate),Homopolymer,1-Decanol,C10H22O,,,,500000,,,,,,,,393.2,770.5,,,,97,
245,Poly(vinyl acetate),Homopolymer,1-Decanol,C10H22O,,,,500000,,,,,,,,399.2,620.7,,,,97,
245,Poly(vinyl acetate),Homopolymer,1-Decanol,C10H22O,,,,500000,,,,,,,,405.2,460.3,,,,97,
245,Poly(vinyl acetate),Homopolymer,1-Decanol,C10H22O,,,,500000,,,,,,,,408.2,417.2,,,,97,
245,Poly(vinyl acetate),Homopolymer,1-Decanol,C10H22O,,,,500000,,,,,,,,411.2,374.7,,,,97,
245,Poly(vinyl acetate),Homopolymer,1-Decanol,C10H22O,,,,500000,,,,,,,,417.2,308.9,,,,97,
245,Poly(vinyl acetate),Homopolymer,1-Decanol,C10H22O,,,,500000,,,,,,,,423.2,228.2,,,,97,
245,Poly(vinyl acetate),Homopolymer,Undecane,C11H24,,86000,,,,,,,,,,398.2,,,46.62,C,101,
246,Poly(vinyl acetate),Homopolymer,Undecane,C11H24,,86000,,,,,,,,,,408.2,,,42.51,C,101,
246,Poly(vinyl acetate),Homopolymer,Undecane,C11H24,,86000,,,,,,,,,,418.2,,,38.99,C,101,
246,Poly(vinyl acetate),Homopolymer,Undecane,C11H24,,,,500000,,,,,,,,393.2,30.8,,,,97,48.1
246,Poly(vinyl acetate),Homopolymer,Undecane,C11H24,,,,500000,,,,,,,,399.2,25.74,,,,97,46.1
246,Poly(vinyl acetate),Homopolymer,Undecane,C11H24,,,,500000,,,,,,,,405.2,22.96,,,,97,41.8
246,Poly(vinyl acetate),Homopolymer,Undecane,C11H24,,,,500000,,,,,,,,408.2,20.32,,,,97,42.6
246,Poly(vinyl acetate),Homopolymer,Undecane,C11H24,,,,500000,,,,,,,,411.2,18.17,,,,97,43
246,Poly(vinyl acetate),Homopolymer,Undecane,C11H24,,,,500000,,,,,,,,417.2,16.32,,,,97,39.3
246,Poly(vinyl acetate),Homopolymer,Undecane,C11H24,,,,500000,,,,,,,,423.2,13.84,,,,97,38.3
246,Poly(vinyl acetate),Homopolymer,Dodecane,C12H26,,86000,,,,,,,,,,398.2,,,53.47,C,101,
246,Poly(vinyl acetate),Homopolymer,Dodecane,C12H26,,86000,,,,,,,,,,408.2,,,48.37,C,101,
246,Poly(vinyl acetate),Homopolymer,Dodecane,C12H26,,86000,,,,,,,,,,418.2,,,43.98,C,101,
246,Poly(vinyl acetate),Homopolymer,Dodecane,C12H26,,,,500000,,,,,,,,393.2,49.76,,,,97,55.4
246,Poly(vinyl acetate),Homopolymer,Dodecane,C12H26,,,,500000,,,,,,,,399.2,41.43,,,,97,52.1
246,Poly(vinyl acetate),Homopolymer,Dodecane,C12H26,,,,500000,,,,,,,,405.2,35.95,,,,97,47.5
246,Poly(vinyl acetate),Homopolymer,Dodecane,C12H26,,,,500000,,,,,,,,408.2,31.71,,,,97,48.1
246,Poly(vinyl acetate),Homopolymer,Dodecane,C12H26,,,,500000,,,,,,,,411.2,28.07,,,,97,48.6
246,Poly(vinyl acetate),Homopolymer,Dodecane,C12H26,,,,500000,,,,,,,,417.2,25.12,,,,97,43.7
246,Poly(vinyl acetate),Homopolymer,Dodecane,C12H26,,,,500000,,,,,,,,423.2,2.88,,,,97,310
246,Poly(vinyl acetate),Homopolymer,Tetradecane,C14H30,,,,500000,,,,,,,,393.2,121.2,,,,97,77.4
246,Poly(vinyl acetate),Homopolymer,Tetradecane,C14H30,,,,500000,,,,,,,,399.2,103.6,,,,97,68.2
246,Poly(vinyl acetate),Homopolymer,Tetradecane,C14H30,,,,500000,,,,,,,,405.2,81.87,,,,97,65.7
246,Poly(vinyl acetate),Homopolymer,Tetradecane,C14H30,,,,500000,,,,,,,,408.2,73.76,,,,97,63.9
246,Poly(vinyl acetate),Homopolymer,Tetradecane,C14H30,,,,500000,,,,,,,,411.2,65.58,,,,97,63.2
246,Poly(vinyl acetate),Homopolymer,Tetradecane,C14H30,,,,500000,,,,,,,,417.2,55.99,,,,97,57.6
247,Poly(vinyl acetate),Homopolymer,Tetradecane,C14H30,,,,500000,,,,,,,,423.2,46.2,,,,97,54.8
247,Poly(vinyl acetate),Homopolymer,Hexadecane,C16H34,,,,500000,,,,,,,,393.2,311.7,,,,97,101
247,Poly(vinyl acetate),Homopolymer,Hexadecane,C16H34,,,,500000,,,,,,,,399.2,256,,,,97,89.1
247,Poly(vinyl acetate),Homopolymer,Hexadecane,C16H34,,,,500000,,,,,,,,405.2,197.6,,,,97,84.9
247,Poly(vinyl acetate),Homopolymer,Hexadecane,C16H34,,,,500000,,,,,,,,408.2,175.8,,,,97,82.3
247,Poly(vinyl acetate),Homopolymer,Hexadecane,C16H34,,,,500000,,,,,,,,411.2,153.4,,,,97,81.5
247,Poly(vinyl acetate),Homopolymer,Hexadecane,C16H34,,,,500000,,,,,,,,417.2,126.8,,,,97,74.2
247,Poly(vinyl acetate),Homopolymer,Hexadecane,C16H34,,,,500000,,,,,,,,423.2,105.4,,,,97,68
247,Poly(vinyl acetate),Homopolymer,Sulfurdioxide,SO2,,83400,,,,,,,,,,398.2,6.36,,,,49,1.73
247,Poly(vinyl acetate),Homopolymer,Sulfurdioxide,SO2,,83400,,,,,,,,,,423.2,4.02,,,,49,2.07
247,Poly(vinyl acetate),Homopolymer,Sulfurdioxide,SO2,,83400,,,,,,,,,,448.2,2.59,,,,49,
247,Poly(vinyl acetate),Homopolymer,Sulfurdioxide,SO2,,83400,,,,,,,,,,473.2,1.87,,,,49,
248,Poly(vinyl chloride),Homopolymer,"Methane, tetrachloro",CCl4,,13500,,29570,,,,,,,56,393.2,,,9.4,C,9,
248,Poly(vinyl chloride),Homopolymer,"Methane, tetrachloro",CCl4,,41000,,85000,,,,,,,,393.2,6.2,,,,37,8.22
248,Poly(vinyl chloride),Homopolymer,"Methane, trichloro",CHCl3,,13500,,29570,,,,,,,56,393.2,,,9.39,C,9,
248,Poly(vinyl chloride),Homopolymer,"Methane, trichloro",CHCl3,,35000,,,,,,,,,,393.2,4.8,,,,69,8.84
248,Poly(vinyl chloride),Homopolymer,"Methane, trichloro",CHCl3,,41000,,85000,,,,,,,,393.2,7,,,,37,6.06
248,Poly(vinyl chloride),Homopolymer,"Methane, dichloro",CH2Cl2,,41000,,85000,,,,,,,,393.2,4.2,,,,37,7.96
248,Poly(vinyl chloride),Homopolymer,Methanol,CH4O,,,a,101500,,,,,a,356.15,,398.2,5,,,,92,21.4
248,Poly(vinyl chloride),Homopolymer,Methanol,CH4O,,,a,101500,,,,,a,356.15,,413.2,4,,,,92,18.5
248,Poly(vinyl chloride),Homopolymer,"Acetic acid, nitrile",C2H3N,,13500,,29570,,,,,,,56,393.2,,,26.4,C,9,
248,Poly(vinyl chloride),Homopolymer,"Acetic acid, nitrile",C2H3N,,35000,,,,,,,,,,393.2,7.9,,,,69,27.4
248,Poly(vinyl chloride),Homopolymer,"Acetic acid, nitrile",C2H3N,,,a,101500,,,,,a,356.15,,398.2,13.5,,,,92,14.3
248,Poly(vinyl chloride),Homopolymer,"Acetic acid, nitrile",C2H3N,,,a,101500,,,,,a,356.15,,413.2,10,,,,92,14
248,Poly(vinyl chloride),Homopolymer,"Ethane, 1,2-dichloro",C2H4Cl2,,,a,101500,,,,,a,356.15,,398.2,13.9,,,,89,5.55
248,Poly(vinyl chloride),Homopolymer,"Ethane, 1,2-dichloro",C2H4Cl2,,,a,101500,,,,,a,356.15,,413.2,10.3,,,,89,5.37
248,Poly(vinyl chloride),Homopolymer,"Ethane, 1,2-dichloro",C2H4Cl2,,,a,101500,,,,,a,356.15,,398.2,14,,,,92,5.51
248,Poly(vinyl chloride),Homopolymer,"Ethane, 1,2-dichloro",C2H4Cl2,,,a,101500,,,,,a,356.15,,413.2,10.5,,,,92,5.27
248,Poly(vinyl chloride),Homopolymer,Acetaldehyde,C2H4O,,,a,101500,,,,,a,356.15,,398.2,3.3,,,,92,12
249,Poly(vinyl chloride),Homopolymer,Acetaldehyde,C2H4O,,,a,101500,,,,,a,356.15,,413.2,2.7,,,,92,11.4
249,Poly(vinyl chloride),Homopolymer,Acetic acid,C2H4O2,,,a,101500,,,,,a,356.15,,398.2,10,,,,92,
249,Poly(vinyl chloride),Homopolymer,Acetic acid,C2H4O2,,,a,101500,,,,,a,356.15,,413.2,8.1,,,,92,
249,Poly(vinyl chloride),Homopolymer,"Ethane, nitro",C2H5NO2,,,a,101500,,,,,a,356.15,,398.2,29.3,,,,89,7.67
249,Poly(vinyl chloride),Homopolymer,"Ethane, nitro",C2H5NO2,,,a,101500,,,,,a,356.15,,413.2,21.2,,,,89,7.19
249,Poly(vinyl chloride),Homopolymer,"Ethane, nitro",C2H5NO2,,,a,101500,,,,,a,356.15,,398.2,29.7,,,,92,7.57
249,Poly(vinyl chloride),Homopolymer,"Ethane, nitro",C2H5NO2,,,a,101500,,,,,a,356.15,,413.2,21.8,,,,92,6.99
249,Poly(vinyl chloride),Homopolymer,Ethanol,C2H6O,,13500,,29570,,,,,,,56,393.2,,,45.5,C,9,
249,Poly(vinyl chloride),Homopolymer,2-Propanone,C3H6O,,35000,,,,,,,,,,393.2,3.5,,,,69,21.3
249,Poly(vinyl chloride),Homopolymer,2-Propanone,C3H6O,,41000,,85000,,,,,,,,393.2,6.3,,,,37,11.8
249,Poly(vinyl chloride),Homopolymer,2-Propanone,C3H6O,,,a,101500,,,,,a,356.15,,398.2,6.2,,,,92,10.8
249,Poly(vinyl chloride),Homopolymer,2-Propanone,C3H6O,,,a,101500,,,,,a,356.15,,413.2,5.2,,,,92,9.65
249,Poly(vinyl chloride),Homopolymer,"Propane, 2-nitro",C3H7NO2,,40000,,80000,,,,,,,,383,34.448,,,,88,10.2
249,Poly(vinyl chloride),Homopolymer,"Propane, 2-nitro",C3H7NO2,,40000,,80000,,,,,,,,413,15.778,,,,88,9.81
249,Poly(vinyl chloride),Homopolymer,1-Propanol,C3H8O,,35000,,,,,,,,,,393.2,3.7,,,,69,48.6
250,Poly(vinyl chloride),Homopolymer,2-Propanol,C3H8O,,,a,101500,,,,,a,356.15,,398.2,5.74,,,,89,16.8
250,Poly(vinyl chloride),Homopolymer,2-Propanol,C3H8O,,,a,101500,,,,,a,356.15,,413.2,4.3,,,,89,15.1
250,Poly(vinyl chloride),Homopolymer,2-Propanol,C3H8O,,,a,101500,,,,,a,356.15,,398.2,5.8,,,,92,16.6
250,Poly(vinyl chloride),Homopolymer,2-Propanol,C3H8O,,,a,101500,,,,,a,356.15,,413.2,4.4,,,,92,14.8
250,Poly(vinyl chloride),Homopolymer,2-Butanone,C4H8O,,13500,,29570,,,,,,,56,393.2,,,11.3,C,9,
250,Poly(vinyl chloride),Homopolymer,2-Butanone,C4H8O,,35000,,,,,,,,,,393.2,8.1,,,,69,13.6
250,Poly(vinyl chloride),Homopolymer,2-Butanone,C4H8O,,41000,,8500,,,,,,,,393.2,10.1,,,,37,10.9
250,Poly(vinyl chloride),Homopolymer,2-Butanone,C4H8O,,,a,101500,,,,,a,356.15,,398.2,9.6,,,,92,10.2
250,Poly(vinyl chloride),Homopolymer,2-Butanone,C4H8O,,,a,101500,,,,,a,356.15,,413.2,8.2,,,,92,8.69
250,Poly(vinyl chloride),Homopolymer,2-Butanone,C4H8O,,,,,,,,,,,,294.7,,1.661,,C,32,
250,Poly(vinyl chloride),Homopolymer,2-Butanone,C4H8O,,,,,,,,,,,,328.7,,0.811,,C,32,
250,Poly(vinyl chloride),Homopolymer,2-Butanone,C4H8O,,,,,,,,,,,,347.7,,0.686,,C,32,
250,Poly(vinyl chloride),Homopolymer,2-Butanone,C4H8O,,,,,,,,,,,,367.7,,0.435,,C,32,
250,Poly(vinyl chloride),Homopolymer,2-Butanone,C4H8O,,,,,,,,,,,,391.2,,0.465,,C,32,
250,Poly(vinyl chloride),Homopolymer,2-Butanone,C4H8O,,,,,,,,,,,,428.7,,0.912,,C,32,
250,Poly(vinyl chloride),Homopolymer,"Furane, tetrahydro",C4H8O,,34000,,,,,,,,,57,315.7,97.4,,,,87,7.44
250,Poly(vinyl chloride),Homopolymer,"Furane, tetrahydro",C4H8O,,,a,101500,,,,,a,356.15,,398.2,9.5,,,,92,7.34
250,Poly(vinyl chloride),Homopolymer,"Furane, tetrahydro",C4H8O,,,a,101500,,,,,a,356.15,,413.2,7.5,,,,92,6.9
250,Poly(vinyl chloride),Homopolymer,"Furane, tetrahydro",C4H8O,,,,,,,,,,,,294.7,,0.83,,C,32,
250,Poly(vinyl chloride),Homopolymer,"Furane, tetrahydro",C4H8O,,,,,,,,,,,,328.7,,0.545,,C,32,
250,Poly(vinyl chloride),Homopolymer,"Furane, tetrahydro",C4H8O,,,,,,,,,,,,347.7,,0.301,,C,32,
250,Poly(vinyl chloride),Homopolymer,"Furane, tetrahydro",C4H8O,,,,,,,,,,,,367.7,,0.131,,C,32,
250,Poly(vinyl chloride),Homopolymer,"Furane, tetrahydro",C4H8O,,,,,,,,,,,,391.2,,0.253,,C,32,
250,Poly(vinyl chloride),Homopolymer,"Furane, tetrahydro",C4H8O,,,,,,,,,,,,428.7,,0.843,,C,32,
251,Poly(vinyl chloride),Homopolymer,"Acetic acid, ethyl ester",C4H8O2,,35000,,,,,,,,,,393.2,4.7,,,,69,17.6
251,Poly(vinyl chloride),Homopolymer,"Acetic acid, ethyl ester",C4H8O2,,41000,,85000,,,,,,,,393.2,6.7,,,,37,12.4
251,Poly(vinyl chloride),Homopolymer,"1,4-Dioxane",C4H8O2,,34000,,,,,,,,,57,315.7,233.4,,,,87,9.61
251,Poly(vinyl chloride),Homopolymer,"1,4-Dioxane",C4H8O2,,,a,101500,,,,,a,356.15,,398.2,28.6,,,,89,4.95
251,Poly(vinyl chloride),Homopolymer,"1,4-Dioxane",C4H8O2,,,a,101500,,,,,a,356.15,,413.2,20.1,,,,89,4.91
251,Poly(vinyl chloride),Homopolymer,"1,4-Dioxane",C4H8O2,,,a,101500,,,,,a,356.15,,398.2,28.5,,,,92,4.97
251,Poly(vinyl chloride),Homopolymer,"1,4-Dioxane",C4H8O2,,,a,101500,,,,,a,356.15,,413.2,20.3,,,,92,4.86
251,Poly(vinyl chloride),Homopolymer,1-Butanol,C4H10O,,40000,,80000,,,,,,,,383,13.202,,,,88,31.8
251,Poly(vinyl chloride),Homopolymer,1-Butanol,C4H10O,,40000,,80000,,,,,,,,413,6.887,,,,88,22.6
251,Poly(vinyl chloride),Homopolymer,"2-Propanol, 2-methyl",C4H10O,,40000,,80000,,,,,,,,383,2.737,,,,88,45.7
251,Poly(vinyl chloride),Homopolymer,"2-Propanol, 2-methyl",C4H10O,,40000,,80000,,,,,,,,413,2.174,,,,88,25.7
251,Poly(vinyl chloride),Homopolymer,Pyridine,C5H5N,,13500,,29570,,,,,,,56,393.2,,,8.99,C,9,
251,Poly(vinyl chloride),Homopolymer,3-Pentanone,C5H10O,,,,,,,,,,,,294.7,,1.639,,C,32,
251,Poly(vinyl chloride),Homopolymer,3-Pentanone,C5H10O,,,,,,,,,,,,328.7,,0.729,,C,32,
251,Poly(vinyl chloride),Homopolymer,3-Pentanone,C5H10O,,,,,,,,,,,,347.7,,0.552,,C,32,
251,Poly(vinyl chloride),Homopolymer,3-Pentanone,C5H10O,,,,,,,,,,,,367.7,,0.402,,C,32,
251,Poly(vinyl chloride),Homopolymer,3-Pentanone,C5H10O,,,,,,,,,,,,391.2,,0.417,,C,32,
251,Poly(vinyl chloride),Homopolymer,3-Pentanone,C5H10O,,,,,,,,,,,,428.7,,0.984,,C,32,
252,Poly(vinyl chloride),Homopolymer,Pentane,C5H12,,41000,,85000,,,,,,,,393.2,1.1,,,,37,38.8
252,Poly(vinyl chloride),Homopolymer,"Benzene, chloro",C6H5Cl,,,,,,,,,,,58,383.2,62.11,,,,91,6.21
252,Poly(vinyl chloride),Homopolymer,"Benzene, chloro",C6H5Cl,,,,,,,,,,,59,383.2,62.11,,,,95,6.21
252,Poly(vinyl chloride),Homopolymer,"Benzene, fluoro",C6H5F,,13500,,29570,,,,,,,56,393.2,,,11.5,C,9,
252,Poly(vinyl chloride),Homopolymer,Benzene,C6H6,,41000,,85000,,,,,,,,393.2,10.6,,,,37,9.88
252,Poly(vinyl chloride),Homopolymer,Benzene,C6H6,,,a,101500,,,,,a,356.15,,398.2,12.5,,,,89,7.49
252,Poly(vinyl chloride),Homopolymer,Benzene,C6H6,,,a,101500,,,,,a,356.15,,413.2,9.47,,,,89,7.22
252,Poly(vinyl chloride),Homopolymer,Benzene,C6H6,,,a,101500,,,,,a,356.15,,398.2,12.7,,,,92,7.37
252,Poly(vinyl chloride),Homopolymer,Benzene,C6H6,,,a,101500,,,,,a,356.15,,413.2,9.6,,,,92,7.12
252,Poly(vinyl chloride),Homopolymer,Phenol,C6H6O,,40000,,80000,,,,,,,,413,83.78,,,,88,10.7
252,Poly(vinyl chloride),Homopolymer,Phenol,C6H6O,,40000,,80000,,,,,,,,443,33.64,,,,88,10.3
252,Poly(vinyl chloride),Homopolymer,Cyclohexane,C6H12,,,a,101500,,,,,a,356.15,,398.2,4.99,,,,89,18.3
252,Poly(vinyl chloride),Homopolymer,Cyclohexane,C6H12,,,a,101500,,,,,a,356.15,,413.2,4.1,,,,89,16.3
252,Poly(vinyl chloride),Homopolymer,Cyclohexane,C6H12,,,a,101500,,,,,a,356.15,,398.2,5.1,,,,92,17.9
252,Poly(vinyl chloride),Homopolymer,Cyclohexane,C6H12,,,a,101500,,,,,a,356.15,,413.2,4.15,,,,92,16.1
252,Poly(vinyl chloride),Homopolymer,Hexanone (isomer not specified),C6H12O,,,,,,,,,,,,294.7,,1.896,,C,32,
252,Poly(vinyl chloride),Homopolymer,Hexanone (isomer not specified),C6H12O,,,,,,,,,,,,328.7,,1.058,,C,32,
253,Poly(vinyl chloride),Homopolymer,Hexanone (isomer not specified),C6H12O,,,,,,,,,,,,347.7,,0.769,,C,32,
253,Poly(vinyl chloride),Homopolymer,Hexanone (isomer not specified),C6H12O,,,,,,,,,,,,367.7,,0.51,,C,32,
253,Poly(vinyl chloride),Homopolymer,Hexanone (isomer not specified),C6H12O,,,,,,,,,,,,391.2,,0.5,,C,32,
253,Poly(vinyl chloride),Homopolymer,Hexanone (isomer not specified),C6H12O,,,,,,,,,,,,428.7,,0.75,,C,32,