Page,Solute,Solute_type,Solvent,Solvent_formula,MN_symbol,MN,MW_symbol,MW,MV_symbol,MV,per composition,per substitution,Tg_symbol,Tg (K),Note,T (K),Vg (cm3/g),chi_inf,omega_inf,U/C,Ref,calc_omega_inf
218,Poly(vinyl acetate),Homopolymer,Ethanol,C2H6O,,,,257000,,,,,,,,353.2,,,9.05,C,43,
218,Poly(vinyl acetate),Homopolymer,Ethanol,C2H6O,,,,257000,,,,,,,,373.2,,,7.34,C,43,
218,Poly(vinyl acetate),Homopolymer,Ethanol,C2H6O,,,,257000,,,,,,,,393.2,,,6.3,C,43,
218,Poly(vinyl acetate),Homopolymer,Ethanol,C2H6O,,47800,,435000,,,,,,,,374.1,31.5,,,,66,7.15
218,Poly(vinyl acetate),Homopolymer,Ethanol,C2H6O,,47800,,435000,,,,,,,,392.7,18.5,,,,66,6.85
218,Poly(vinyl acetate),Homopolymer,Ethanol,C2H6O,,47800,,435000,,,,,,,,413.2,10.8,,,,66,6.74
218,Poly(vinyl acetate),Homopolymer,Ethanol,C2H6O,,47800,,435000,,,,,,,,433,6.68,,,,66,6.84
218,Poly(vinyl acetate),Homopolymer,Ethanol,C2H6O,,,,500000,,,,,,,,363,48.4,,,,66,6.8
218,Poly(vinyl acetate),Homopolymer,Ethanol,C2H6O,,,,500000,,,,,,,,387.5,21.3,,,,66,6.94
218,Poly(vinyl acetate),Homopolymer,Ethanol,C2H6O,,,,500000,,,,,,,,401.8,14.9,,,,66,6.59
218,Poly(vinyl acetate),Homopolymer,Ethanol,C2H6O,,,,500000,,,,,,,,417.1,10.4,,,,66,6.35
218,Poly(vinyl acetate),Homopolymer,Ethanol,C2H6O,,,,1500000,,,,,,,,373.8,25.8,,,,66,8.81
218,Poly(vinyl acetate),Homopolymer,Ethanol,C2H6O,,,,1500000,,,,,,,,388.5,17.5,,,,66,8.19
218,Poly(vinyl acetate),Homopolymer,Ethanol,C2H6O,,,,1500000,,,,,,,,402.8,12.6,,,,66,7.58
218,Poly(vinyl acetate),Homopolymer,Ethanol,C2H6O,,,,1500000,,,,,,,,418.2,9.02,,,,66,7.13
218,Poly(vinyl acetate),Homopolymer,Ethanol,C2H6O,,,,,,141420,,,,,,353.2,,0.99,,C,28,
218,Poly(vinyl acetate),Homopolymer,Ethanol,C2H6O,,,,,,141420,,,,,,373.2,,0.96,,C,28,
218,Poly(vinyl acetate),Homopolymer,"Propanoic acid, nitrile",C3H5N,,47800,,435000,,,,,,,,392.7,39.6,,,,66,6.55
218,Poly(vinyl acetate),Homopolymer,"Propanoic acid, nitrile",C3H5N,,47800,,435000,,,,,,,,413.2,23.1,,,,66,7.08
218,Poly(vinyl acetate),Homopolymer,"Propanoic acid, nitrile",C3H5N,,47800,,435000,,,,,,,,433,14.4,,,,66,7.69
219,Poly(vinyl acetate),Homopolymer,2-Propanone,C3H6O,,,,45000,,,,,a,305.15,,398.2,11.5,,,,92,5.84
219,Poly(vinyl acetate),Homopolymer,2-Propanone,C3H6O,,,,45000,,,,,a,305.15,,413.2,8.7,,,,92,5.77
219,Poly(vinyl acetate),Homopolymer,2-Propanone,C3H6O,,,,257000,,,,,,,,353.2,,,4.78,C,43,
219,Poly(vinyl acetate),Homopolymer,2-Propanone,C3H6O,,,,257000,,,,,,,,373.2,,,4.29,C,43,
219,Poly(vinyl acetate),Homopolymer,2-Propanone,C3H6O,,,,257000,,,,,,,,393.2,,,3.95,C,43,
219,Poly(vinyl acetate),Homopolymer,2-Propanone,C3H6O,,47800,,435000,,,,,,,,374.1,23.6,,,,66,4.85
219,Poly(vinyl acetate),Homopolymer,2-Propanone,C3H6O,,47800,,435000,,,,,,,,392.7,14.4,,,,66,5.22
219,Poly(vinyl acetate),Homopolymer,2-Propanone,C3H6O,,47800,,435000,,,,,,,,413.2,9.21,,,,66,5.44
219,Poly(vinyl acetate),Homopolymer,2-Propanone,C3H6O,,47800,,435000,,,,,,,,433,5.93,,,,66,6
219,Poly(vinyl acetate),Homopolymer,2-Propanone,C3H6O,,83400,,,,,,,,,,398.2,11.3,,,,49,5.94
219,Poly(vinyl acetate),Homopolymer,2-Propanone,C3H6O,,83400,,,,,,,,,,423.2,6.89,,,,49,6.09
219,Poly(vinyl acetate),Homopolymer,2-Propanone,C3H6O,,83400,,,,,,,,,,448.2,4.44,,,,49,6.34
219,Poly(vinyl acetate),Homopolymer,2-Propanone,C3H6O,,83400,,,,,,,,,,473.2,3.06,,,,49,6.57
219,Poly(vinyl acetate),Homopolymer,2-Propanone,C3H6O,,,,500000,,,,,,,,363,35.2,,,,66,4.29
219,Poly(vinyl acetate),Homopolymer,2-Propanone,C3H6O,,,,500000,,,,,,,,387.5,18.2,,,,66,4.62
219,Poly(vinyl acetate),Homopolymer,2-Propanone,C3H6O,,,,500000,,,,,,,,401.8,12.8,,,,66,4.88
219,Poly(vinyl acetate),Homopolymer,2-Propanone,C3H6O,,,,500000,,,,,,,,417.1,8,,,,66,5.84
219,Poly(vinyl acetate),Homopolymer,2-Propanone,C3H6O,,,,1500000,,,,,,,,373.8,22,,,,66,5.24
219,Poly(vinyl acetate),Homopolymer,2-Propanone,C3H6O,,,,1500000,,,,,,,,388.5,14.6,,,,66,5.64
219,Poly(vinyl acetate),Homopolymer,2-Propanone,C3H6O,,,,1500000,,,,,,,,402.8,10.7,,,,66,5.72
219,Poly(vinyl acetate),Homopolymer,2-Propanone,C3H6O,,,,1500000,,,,,,,,418.2,7.77,,,,66,5.89
219,Poly(vinyl acetate),Homopolymer,2-Propanone,C3H6O,,,,,,141420,,,,,,353.2,,0.47,,C,28,
219,Poly(vinyl acetate),Homopolymer,2-Propanone,C3H6O,,,,,,141420,,,,,,373.2,,0.52,,C,28,
219,Poly(vinyl acetate),Homopolymer,"Acetic acid, methyl ester",C3H6O2,,47800,,435000,,,,,,,,374.1,23.3,,,,66,3.88
219,Poly(vinyl acetate),Homopolymer,"Acetic acid, methyl ester",C3H6O2,,47800,,435000,,,,,,,,392.7,14.3,,,,66,4.15
219,Poly(vinyl acetate),Homopolymer,"Acetic acid, methyl ester",C3H6O2,,47800,,435000,,,,,,,,413.2,8.67,,,,66,4.57
219,Poly(vinyl acetate),Homopolymer,"Acetic acid, methyl ester",C3H6O2,,47800,,435000,,,,,,,,433,5.42,,,,66,5.21
220,Poly(vinyl acetate),Homopolymer,"Acetic acid, methyl ester",C3H6O2,,,,1500000,,,,,,,,374.8,22.2,,,,66,4
220,Poly(vinyl acetate),Homopolymer,"Acetic acid, methyl ester",C3H6O2,,,,1500000,,,,,,,,388.4,14.7,,,,66,4.42
220,Poly(vinyl acetate),Homopolymer,"Acetic acid, methyl ester",C3H6O2,,,,1500000,,,,,,,,401.8,10.7,,,,66,4.6
220,Poly(vinyl acetate),Homopolymer,"Acetic acid, methyl ester",C3H6O2,,,,1500000,,,,,,,,417.3,7.54,,,,66,4.88
220,Poly(vinyl acetate),Homopolymer,"Propane, 1-chloro",C3H7Cl,,47800,,435000,,,,,,,,392.7,9.68,,,,66,4.8
220,Poly(vinyl acetate),Homopolymer,"Propane, 1-chloro",C3H7Cl,,47800,,435000,,,,,,,,413.2,5.81,,,,66,5.51
220,Poly(vinyl acetate),Homopolymer,"Propane, 1-chloro",C3H7Cl,,47800,,435000,,,,,,,,433,3.94,,,,66,5.94
220,Poly(vinyl acetate),Homopolymer,"Propane, 1-chloro",C3H7Cl,,,,500000,,,,,,,,363,21.3,,,,66,4.13
220,Poly(vinyl acetate),Homopolymer,"Propane, 1-chloro",C3H7Cl,,,,500000,,,,,,,,387.5,11.4,,,,66,4.51
220,Poly(vinyl acetate),Homopolymer,"Propane, 1-chloro",C3H7Cl,,,,500000,,,,,,,,401.8,8,,,,66,4.89
220,Poly(vinyl acetate),Homopolymer,"Propane, 1-chloro",C3H7Cl,,,,500000,,,,,,,,417.1,5.93,,,,66,5.06
220,Poly(vinyl acetate),Homopolymer,"Propane, 1-chloro",C3H7Cl,,,,1500000,,,,,,,,373.8,13.5,,,,66,5.08
220,Poly(vinyl acetate),Homopolymer,"Propane, 1-chloro",C3H7Cl,,,,1500000,,,,,,,,388.5,9.39,,,,66,5.37
220,Poly(vinyl acetate),Homopolymer,"Propane, 1-chloro",C3H7Cl,,,,1500000,,,,,,,,402.8,6.82,,,,66,5.63
220,Poly(vinyl acetate),Homopolymer,"Propane, 1-chloro",C3H7Cl,,,,1500000,,,,,,,,418.2,4.95,,,,66,5.96
220,Poly(vinyl acetate),Homopolymer,1-Propanol,C3H8O,,,,257000,,,,,,,,353.2,,,7.56,C,43,
220,Poly(vinyl acetate),Homopolymer,1-Propanol,C3H8O,,,,257000,,,,,,,,373.2,,,6.1,C,43,
220,Poly(vinyl acetate),Homopolymer,1-Propanol,C3H8O,,,,257000,,,,,,,,393.2,,,5.25,C,43,
220,Poly(vinyl acetate),Homopolymer,1-Propanol,C3H8O,,47800,,435000,,,,,,,,374.1,58.6,,,,66,5.83
220,Poly(vinyl acetate),Homopolymer,1-Propanol,C3H8O,,47800,,435000,,,,,,,,392.7,31.5,,,,66,5.79
220,Poly(vinyl acetate),Homopolymer,1-Propanol,C3H8O,,47800,,435000,,,,,,,,413.2,17.5,,,,66,5.73
220,Poly(vinyl acetate),Homopolymer,1-Propanol,C3H8O,,47800,,435000,,,,,,,,433,9.97,,,,66,6.12
220,Poly(vinyl acetate),Homopolymer,1-Propanol,C3H8O,,,,500000,,,,,,,,363,90,,,,66,5.76
220,Poly(vinyl acetate),Homopolymer,1-Propanol,C3H8O,,,,500000,,,,,,,,387.5,37,,,,66,5.83
220,Poly(vinyl acetate),Homopolymer,1-Propanol,C3H8O,,,,500000,,,,,,,,393.2,25.37,,,,97,7.09
221,Poly(vinyl acetate),Homopolymer,1-Propanol,C3H8O,,,,500000,,,,,,,,399.2,22.21,,,,97,7.06
221,Poly(vinyl acetate),Homopolymer,1-Propanol,C3H8O,,,,500000,,,,,,,,401.8,24,,,,66,5.77
221,Poly(vinyl acetate),Homopolymer,1-Propanol,C3H8O,,,,500000,,,,,,,,405.2,18.86,,,,97,6.66
221,Poly(vinyl acetate),Homopolymer,1-Propanol,C3H8O,,,,500000,,,,,,,,408.2,16.92,,,,97,6.81
221,Poly(vinyl acetate),Homopolymer,1-Propanol,C3H8O,,,,500000,,,,,,,,411.2,15.91,,,,97,6.67
221,Poly(vinyl acetate),Homopolymer,1-Propanol,C3H8O,,,,500000,,,,,,,,417.1,16.3,,,,66,5.55
221,Poly(vinyl acetate),Homopolymer,1-Propanol,C3H8O,,,,500000,,,,,,,,417.2,13.39,,,,97,6.74
221,Poly(vinyl acetate),Homopolymer,1-Propanol,C3H8O,,,,500000,,,,,,,,423.2,12.1,,,,97,6.4
221,Poly(vinyl acetate),Homopolymer,1-Propanol,C3H8O,,,,1500000,,,,,,,,373.8,46.5,,,,66,7.43
221,Poly(vinyl acetate),Homopolymer,1-Propanol,C3H8O,,,,1500000,,,,,,,,388.5,29.1,,,,66,7.17
221,Poly(vinyl acetate),Homopolymer,1-Propanol,C3H8O,,,,1500000,,,,,,,,402.8,20.1,,,,66,6.69
221,Poly(vinyl acetate),Homopolymer,1-Propanol,C3H8O,,,,1500000,,,,,,,,418.2,13.9,,,,66,6.32
221,Poly(vinyl acetate),Homopolymer,2-Propanol,C3H8O,,,a,45000,,,,,a,305.15,,398.2,13.4,,,,89,7.18
221,Poly(vinyl acetate),Homopolymer,2-Propanol,C3H8O,,,a,45000,,,,,a,305.15,,413.2,9.71,,,,89,6.7
221,Poly(vinyl acetate),Homopolymer,2-Propanol,C3H8O,,,,45000,,,,,a,305.15,,398.2,13.5,,,,92,7.13
221,Poly(vinyl acetate),Homopolymer,2-Propanol,C3H8O,,,,45000,,,,,a,305.15,,413.2,9.8,,,,92,6.64
221,Poly(vinyl acetate),Homopolymer,2-Propanol,C3H8O,,83350,,331400,,,,,,,,398.2,11.9,,,,2,8.09
221,Poly(vinyl acetate),Homopolymer,2-Propanol,C3H8O,,83350,,331400,,,,,,,,423.2,7,,,,2,7.33
221,Poly(vinyl acetate),Homopolymer,2-Propanol,C3H8O,,83350,,331400,,,,,,,,448.2,4.4,,,,2,6.97
221,Poly(vinyl acetate),Homopolymer,2-Propanol,C3H8O,,83350,,331400,,,,,,,,473.2,3.1,,,,2,6.51
221,Poly(vinyl acetate),Homopolymer,2-Propanol,C3H8O,,83400,,,,,,,,,,398.2,13.3,,,,49,7.24
221,Poly(vinyl acetate),Homopolymer,2-Propanol,C3H8O,,83400,,,,,,,,,,423.2,7.61,,,,49,6.75
221,Poly(vinyl acetate),Homopolymer,2-Propanol,C3H8O,,83400,,,,,,,,,,448.2,4.72,,,,49,6.5
221,Poly(vinyl acetate),Homopolymer,2-Propanol,C3H8O,,83400,,,,,,,,,,473.2,3.11,,,,49,6.49
221,Poly(vinyl acetate),Homopolymer,2-Propanol,C3H8O,,,,500000,,,,,,,,393.2,14.71,,,,97,7.53
221,Poly(vinyl acetate),Homopolymer,2-Propanol,C3H8O,,,,500000,,,,,,,,399.2,12.46,,,,97,7.51
221,Poly(vinyl acetate),Homopolymer,2-Propanol,C3H8O,,,,500000,,,,,,,,405.2,11.08,,,,97,7.19
222,Poly(vinyl acetate),Homopolymer,2-Propanol,C3H8O,,,,500000,,,,,,,,408.2,10.26,,,,97,7.19
222,Poly(vinyl acetate),Homopolymer,2-Propanol,C3H8O,,,,500000,,,,,,,,411.2,9.99,,,,97,6.84
222,Poly(vinyl acetate),Homopolymer,2-Propanol,C3H8O,,,,500000,,,,,,,,417.2,8.19,,,,97,7.21
222,Poly(vinyl acetate),Homopolymer,2-Propanol,C3H8O,,,,500000,,,,,,,,423.2,7.44,,,,97,6.9
222,Poly(vinyl acetate),Homopolymer,"Ethanol, 2-methoxy",C3H8O2,,83350,,331400,,,,,,,,398.2,49.2,,,,2,6.07
222,Poly(vinyl acetate),Homopolymer,"Ethanol, 2-methoxy",C3H8O2,,83350,,331400,,,,,,,,423.2,25.2,,,,2,5.85
222,Poly(vinyl acetate),Homopolymer,"Ethanol, 2-methoxy",C3H8O2,,83350,,331400,,,,,,,,448.2,14.4,,,,2,5.5
222,Poly(vinyl acetate),Homopolymer,"Ethanol, 2-methoxy",C3H8O2,,83350,,331400,,,,,,,,473.2,8.9,,,,2,5.11
222,Poly(vinyl acetate),Homopolymer,"Acetic acid, ethenyl ester",C4H6O2,,83350,,331400,,,,,,,,398.2,12.8,,,,2,5.14
222,Poly(vinyl acetate),Homopolymer,"Acetic acid, ethenyl ester",C4H6O2,,83350,,331400,,,,,,,,423.2,7.5,,,,2,5.28
222,Poly(vinyl acetate),Homopolymer,"Acetic acid, ethenyl ester",C4H6O2,,83350,,331400,,,,,,,,448.2,4.8,,,,2,5.4
222,Poly(vinyl acetate),Homopolymer,"Acetic acid, ethenyl ester",C4H6O2,,83350,,331400,,,,,,,,473.2,3.2,,,,2,5.68
222,Poly(vinyl acetate),Homopolymer,"Acetic acid, ethenyl ester",C4H6O2,,83400,,,,,,,,,,398.2,14.2,,,,49,4.63
222,Poly(vinyl acetate),Homopolymer,"Acetic acid, ethenyl ester",C4H6O2,,83400,,,,,,,,,,423.2,8.4,,,,49,4.71
222,Poly(vinyl acetate),Homopolymer,"Acetic acid, ethenyl ester",C4H6O2,,83400,,,,,,,,,,448.2,5.26,,,,49,4.93
222,Poly(vinyl acetate),Homopolymer,"Acetic acid, ethenyl ester",C4H6O2,,83400,,,,,,,,,,473.2,3.36,,,,49,5.41
222,Poly(vinyl acetate),Homopolymer,"Butanoic acid, nitrile",C4H7N,,47800,,435000,,,,,,,,392.7,60.3,,,,66,5.67
222,Poly(vinyl acetate),Homopolymer,"Butanoic acid, nitrile",C4H7N,,47800,,435000,,,,,,,,413.2,33.8,,,,66,6.07
222,Poly(vinyl acetate),Homopolymer,"Butanoic acid, nitrile",C4H7N,,47800,,435000,,,,,,,,433,20.3,,,,66,6.56
222,Poly(vinyl acetate),Homopolymer,2-Butanone,C4H8O,,,,45000,,,,,a,305.15,,398.2,18,,,,92,5.44
222,Poly(vinyl acetate),Homopolymer,2-Butanone,C4H8O,,,,45000,,,,,a,305.15,,413.2,12.8,,,,92,5.57
223,Poly(vinyl acetate),Homopolymer,2-Butanone,C4H8O,,47800,,435000,,,,,,,,374.1,39.2,,,,66,4.49
223,Poly(vinyl acetate),Homopolymer,2-Butanone,C4H8O,,47800,,435000,,,,,,,,392.5,22.9,,,,66,4.85
223,Poly(vinyl acetate),Homopolymer,2-Butanone,C4H8O,,47800,,435000,,,,,,,,413.2,13.5,,,,66,5.27
223,Poly(vinyl acetate),Homopolymer,2-Butanone,C4H8O,,47800,,435000,,,,,,,,433,8.17,,,,66,6
223,Poly(vinyl acetate),Homopolymer,2-Butanone,C4H8O,,83350,,331400,,,,,,,,398.2,15.6,,,,2,6.28
223,Poly(vinyl acetate),Homopolymer,2-Butanone,C4H8O,,83350,,331400,,,,,,,,423.2,9.2,,,,2,6.37
223,Poly(vinyl acetate),Homopolymer,2-Butanone,C4H8O,,83350,,331400,,,,,,,,448.2,5.8,,,,2,6.55
223,Poly(vinyl acetate),Homopolymer,2-Butanone,C4H8O,,83350,,331400,,,,,,,,473.2,3.8,,,,2,6.92
223,Poly(vinyl acetate),Homopolymer,2-Butanone,C4H8O,,83400,,,,,,,,,,398.2,17.1,,,,49,5.73
223,Poly(vinyl acetate),Homopolymer,2-Butanone,C4H8O,,83400,,,,,,,,,,423.2,10.2,,,,49,5.75
223,Poly(vinyl acetate),Homopolymer,2-Butanone,C4H8O,,83400,,,,,,,,,,448.2,6.34,,,,49,5.99
223,Poly(vinyl acetate),Homopolymer,2-Butanone,C4H8O,,83400,,,,,,,,,,473.2,4.32,,,,49,6.09
223,Poly(vinyl acetate),Homopolymer,2-Butanone,C4H8O,,,,500000,,,,,,,,363,62.8,,,,66,3.8
223,Poly(vinyl acetate),Homopolymer,2-Butanone,C4H8O,,,,500000,,,,,,,,387.5,28.8,,,,66,4.36
223,Poly(vinyl acetate),Homopolymer,2-Butanone,C4H8O,,,,500000,,,,,,,,401.8,19.5,,,,66,4.64
223,Poly(vinyl acetate),Homopolymer,2-Butanone,C4H8O,,,,500000,,,,,,,,417.1,13.2,,,,66,4.99
223,Poly(vinyl acetate),Homopolymer,2-Butanone,C4H8O,,,,1500000,,,,,,,,373.8,34.8,,,,66,5.1
223,Poly(vinyl acetate),Homopolymer,2-Butanone,C4H8O,,,,1500000,,,,,,,,388.5,22.6,,,,66,5.42
223,Poly(vinyl acetate),Homopolymer,2-Butanone,C4H8O,,,,1500000,,,,,,,,402.8,16,,,,66,5.53
223,Poly(vinyl acetate),Homopolymer,2-Butanone,C4H8O,,,,1500000,,,,,,,,418.2,11.4,,,,66,5.65
223,Poly(vinyl acetate),Homopolymer,2-Butanone,C4H8O,,,,,,141420,,,,,,353.2,,0.44,,C,28,
223,Poly(vinyl acetate),Homopolymer,2-Butanone,C4H8O,,,,,,141420,,,,,,373.2,,0.45,,C,28,
223,Poly(vinyl acetate),Homopolymer,"Furane, tetrahydro",C4H8O,,,,45000,,,,,a,305.15,,398.2,15.3,,,,92,4.56
223,Poly(vinyl acetate),Homopolymer,"Furane, tetrahydro",C4H8O,,,,45000,,,,,a,305.15,,413.2,11.1,,,,92,4.66
223,Poly(vinyl acetate),Homopolymer,"Acetic acid, ethyl ester",C4H8O2,,,,257000,,,,,,,,353.2,,,3.91,C,43,
224,Poly(vinyl acetate),Homopolymer,"Acetic acid, ethyl ester",C4H8O2,,,,257000,,,,,,,,373.2,,,3.63,C,43,
224,Poly(vinyl acetate),Homopolymer,"Acetic acid, ethyl ester",C4H8O2,,,,257000,,,,,,,,393.2,,,3.47,C,43,
224,Poly(vinyl acetate),Homopolymer,"Acetic acid, ethyl ester",C4H8O2,,47800,,435000,,,,,,,,374.1,33.4,,,,66,3.99
224,Poly(vinyl acetate),Homopolymer,"Acetic acid, ethyl ester",C4H8O2,,47800,,435000,,,,,,,,392.7,19.3,,,,66,4.34
224,Poly(vinyl acetate),Homopolymer,"Acetic acid, ethyl ester",C4H8O2,,47800,,435000,,,,,,,,413.2,11,,,,66,4.88
224,Poly(vinyl acetate),Homopolymer,"Acetic acid, ethyl ester",C4H8O2,,47800,,435000,,,,,,,,433,6.49,,,,66,5.69
224,Poly(vinyl acetate),Homopolymer,"Acetic acid, ethyl ester",C4H8O2,,83350,,331400,,,,,,,,398.2,12.8,,,,2,5.78
224,Poly(vinyl acetate),Homopolymer,"Acetic acid, ethyl ester",C4H8O2,,83350,,331400,,,,,,,,423.2,7.4,,,,2,5.97
224,Poly(vinyl acetate),Homopolymer,"Acetic acid, ethyl ester",C4H8O2,,83350,,331400,,,,,,,,448.2,4.7,,,,2,6.1
224,Poly(vinyl acetate),Homopolymer,"Acetic acid, ethyl ester",C4H8O2,,83350,,331400,,,,,,,,473.2,3.2,,,,2,6.21
224,Poly(vinyl acetate),Homopolymer,"Acetic acid, ethyl ester",C4H8O2,,,,500000,,,,,,,,354,68.7,,,,66,3.46
224,Poly(vinyl acetate),Homopolymer,"Acetic acid, ethyl ester",C4H8O2,,,,500000,,,,,,,,372.5,33.8,,,,66,4.12
224,Poly(vinyl acetate),Homopolymer,"Acetic acid, ethyl ester",C4H8O2,,,,500000,,,,,,,,395.8,16.9,,,,66,4.62
224,Poly(vinyl acetate),Homopolymer,"Acetic acid, ethyl ester",C4H8O2,,,,500000,,,,,,,,417.1,9.58,,,,66,5.19
224,Poly(vinyl acetate),Homopolymer,"Acetic acid, ethyl ester",C4H8O2,,,,1500000,,,,,,,,374.8,31.8,,,,66,4.12
224,Poly(vinyl acetate),Homopolymer,"Acetic acid, ethyl ester",C4H8O2,,,,1500000,,,,,,,,388.4,20.3,,,,66,4.57
224,Poly(vinyl acetate),Homopolymer,"Acetic acid, ethyl ester",C4H8O2,,,,1500000,,,,,,,,401.8,13.9,,,,66,4.91
224,Poly(vinyl acetate),Homopolymer,"Acetic acid, ethyl ester",C4H8O2,,,,1500000,,,,,,,,417.3,9.3,,,,66,5.32
224,Poly(vinyl acetate),Homopolymer,"Acetic acid, ethyl ester",C4H8O2,,,,,,141420,,,,,,353.2,,0.42,,C,28,
224,Poly(vinyl acetate),Homopolymer,"Acetic acid, ethyl ester",C4H8O2,,,,,,141420,,,,,,373.2,,0.45,,C,28,
224,Poly(vinyl acetate),Homopolymer,"1,4-Dioxane",C4H8O2,,,a,45000,,,,,a,305.15,,398.2,39,,,,89,3.63
224,Poly(vinyl acetate),Homopolymer,"1,4-Dioxane",C4H8O2,,,a,45000,,,,,a,305.15,,413.2,27.1,,,,89,3.64
224,Poly(vinyl acetate),Homopolymer,"1,4-Dioxane",C4H8O2,,,,45000,,,,,a,305.15,,398.2,39.5,,,,92,3.58
224,Poly(vinyl acetate),Homopolymer,"1,4-Dioxane",C4H8O2,,,,45000,,,,,a,305.15,,413.2,27,,,,92,3.66
224,Poly(vinyl acetate),Homopolymer,"1,4-Dioxane",C4H8O2,,,,257000,,,,,,,,353.2,,,2.86,C,43,
224,Poly(vinyl acetate),Homopolymer,"1,4-Dioxane",C4H8O2,,,,257000,,,,,,,,373.2,,,2.59,C,43,
224,Poly(vinyl acetate),Homopolymer,"1,4-Dioxane",C4H8O2,,,,257000,,,,,,,,393.2,,,2.41,C,43,
225,Poly(vinyl acetate),Homopolymer,"Butane, 1-chloro",C4H9Cl,,47800,,435000,,,,,,,,392.7,15.3,,,,66,5.64
225,Poly(vinyl acetate),Homopolymer,"Butane, 1-chloro",C4H9Cl,,47800,,435000,,,,,,,,413.2,9.39,,,,66,5.96
225,Poly(vinyl acetate),Homopolymer,"Butane, 1-chloro",C4H9Cl,,47800,,435000,,,,,,,,433,5.87,,,,66,6.6
225,Poly(vinyl acetate),Homopolymer,"Butane, 1-chloro",C4H9Cl,,86000,,,,,,,,,,408.2,,,7.81,C,53,
225,Poly(vinyl acetate),Homopolymer,"Butane, 1-chloro",C4H9Cl,,,,500000,,,,,,,,363,40,,,,66,4.53
225,Poly(vinyl acetate),Homopolymer,"Butane, 1-chloro",C4H9Cl,,,,500000,,,,,,,,387.5,18.9,,,,66,5.14
225,Poly(vinyl acetate),Homopolymer,"Butane, 1-chloro",C4H9Cl,,,,500000,,,,,,,,401.8,13.3,,,,66,5.31
225,Poly(vinyl acetate),Homopolymer,"Butane, 1-chloro",C4H9Cl,,,,500000,,,,,,,,417.1,9.3,,,,66,5.57
225,Poly(vinyl acetate),Homopolymer,"Butane, 1-chloro",C4H9Cl,,,,1500000,,,,,,,,373.8,23.1,,,,66,5.88
225,Poly(vinyl acetate),Homopolymer,"Butane, 1-chloro",C4H9Cl,,,,1500000,,,,,,,,388.5,15,,,,66,6.33
225,Poly(vinyl acetate),Homopolymer,"Butane, 1-chloro",C4H9Cl,,,,1500000,,,,,,,,402.8,10.6,,,,66,6.52
225,Poly(vinyl acetate),Homopolymer,"Butane, 1-chloro",C4H9Cl,,,,1500000,,,,,,,,418.2,7.46,,,,66,6.8
225,Poly(vinyl acetate),Homopolymer,1-Butanol,C4H10O,,,,257000,,,,,,,,353.2,,,7.19,C,43,
225,Poly(vinyl acetate),Homopolymer,1-Butanol,C4H10O,,,,257000,,,,,,,,373.2,,,5.66,C,43,
225,Poly(vinyl acetate),Homopolymer,1-Butanol,C4H10O,,,,257000,,,,,,,,393.2,,,4.76,C,43,
225,Poly(vinyl acetate),Homopolymer,1-Butanol,C4H10O,,47800,,435000,,,,,,,,374.1,107,,,,66,5.5
225,Poly(vinyl acetate),Homopolymer,1-Butanol,C4H10O,,47800,,435000,,,,,,,,392.7,54.6,,,,66,5.45
225,Poly(vinyl acetate),Homopolymer,1-Butanol,C4H10O,,47800,,435000,,,,,,,,413.2,28.8,,,,66,5.37
225,Poly(vinyl acetate),Homopolymer,1-Butanol,C4H10O,,47800,,435000,,,,,,,,433,16.1,,,,66,5.56
225,Poly(vinyl acetate),Homopolymer,1-Butanol,C4H10O,,83350,,331400,,,,,,,,398.2,34.4,,,,2,7.2
225,Poly(vinyl acetate),Homopolymer,1-Butanol,C4H10O,,83350,,331400,,,,,,,,423.2,17.8,,,,2,6.54
225,Poly(vinyl acetate),Homopolymer,1-Butanol,C4H10O,,83350,,331400,,,,,,,,448.2,10.2,,,,2,6.06
225,Poly(vinyl acetate),Homopolymer,1-Butanol,C4H10O,,83350,,331400,,,,,,,,473.2,6.2,,,,2,5.86
225,Poly(vinyl acetate),Homopolymer,1-Butanol,C4H10O,,86000,,,,,,,,,,408.2,,,6.13,C,53,
225,Poly(vinyl acetate),Homopolymer,1-Butanol,C4H10O,,,,500000,,,,,,,,363,183,,,,66,5.06
225,Poly(vinyl acetate),Homopolymer,1-Butanol,C4H10O,,,,500000,,,,,,,,387.5,66.7,,,,66,5.35
226,Poly(vinyl acetate),Homopolymer,1-Butanol,C4H10O,,,,500000,,,,,,,,393.2,41.6,,,,97,7.04
226,Poly(vinyl acetate),Homopolymer,1-Butanol,C4H10O,,,,500000,,,,,,,,399.2,35.69,,,,97,6.71
226,Poly(vinyl acetate),Homopolymer,1-Butanol,C4H10O,,,,500000,,,,,,,,401.8,42.1,,,,66,5.22