Page,Solute,Solute_type,Solvent,Solvent_formula,MN_symbol,MN,MW_symbol,MW,MV_symbol,MV,per composition,per substitution,Tg_symbol,Tg (K),Note,T (K),Vg (cm3/g),chi_inf,omega_inf,U/C,Ref,calc_omega_inf
1,Alkyd resin,Homopolymer,"Methane, trichloro",CHCl3,,,a,2500,,,,,<,298.15,,323.2,120.8,,,,2,2.33
1,Alkyd resin,Homopolymer,"Methane, trichloro",CHCl3,,,a,2500,,,,,<,298.15,,348.2,50.2,,,,2,2.55
1,Alkyd resin,Homopolymer,"Methane, trichloro",CHCl3,,,a,2500,,,,,<,298.15,,373.2,24,,,,2,2.77
1,Alkyd resin,Homopolymer,"Methane, trichloro",CHCl3,,,a,2500,,,,,<,298.15,,398.2,14.1,,,,2,2.72
1,Alkyd resin,Homopolymer,"Methane, trichloro",CHCl3,,,a,2500,,,,,<,298.15,,423.2,7.9,,,,2,3.04
1,Alkyd resin,Homopolymer,"Acetic acid, nitrile",C2H3N,,,a,2500,,,,,<,298.15,,373.2,30,,,,2,11.8
1,Alkyd resin,Homopolymer,"Acetic acid, nitrile",C2H3N,,,a,2500,,,,,<,298.15,,398.2,16.7,,,,2,11.5
1,Alkyd resin,Homopolymer,"Acetic acid, nitrile",C2H3N,,,a,2500,,,,,<,298.15,,423.2,10,,,,2,11.4
1,Alkyd resin,Homopolymer,"Acetic acid, nitrile",C2H3N,,,a,2500,,,,,<,298.15,,448.2,6.5,,,,2,11.3
1,Alkyd resin,Homopolymer,"Acetic acid, nitrile",C2H3N,,,a,2500,,,,,<,298.15,,473.2,4.4,,,,2,11.4
1,Alkyd resin,Homopolymer,"Ethane, 1,2-dichloro",C2H4Cl2,,,a,2500,,,,,<,298.15,,323.2,188.6,,,,2,3.96
1,Alkyd resin,Homopolymer,"Ethane, 1,2-dichloro",C2H4Cl2,,,a,2500,,,,,<,298.15,,348.2,76.6,,,,2,4
1,Alkyd resin,Homopolymer,"Ethane, 1,2-dichloro",C2H4Cl2,,,a,2500,,,,,<,298.15,,373.2,36.2,,,,2,4.01
1,Alkyd resin,Homopolymer,"Ethane, 1,2-dichloro",C2H4Cl2,,,a,2500,,,,,<,298.15,,398.2,20.9,,,,2,3.69
1,Alkyd resin,Homopolymer,"Ethane, 1,2-dichloro",C2H4Cl2,,,a,2500,,,,,<,298.15,,423.2,11.8,,,,2,3.81
1,Alkyd resin,Homopolymer,"Formic acid, amide, N,N-dimethyl",C3H7NO,,,a,2500,,,,,<,298.15,,373.2,780.3,,,,2,1.93
1,Alkyd resin,Homopolymer,"Formic acid, amide, N,N-dimethyl",C3H7NO,,,a,2500,,,,,<,298.15,,398.2,273.7,,,,2,2.45
1,Alkyd resin,Homopolymer,"Formic acid, amide, N,N-dimethyl",C3H7NO,,,a,2500,,,,,<,298.15,,423.2,109.4,,,,2,3.14
1,Alkyd resin,Homopolymer,"Formic acid, amide, N,N-dimethyl",C3H7NO,,,a,2500,,,,,<,298.15,,448.2,54.8,,,,2,3.56
1,Alkyd resin,Homopolymer,"Formic acid, amide, N,N-dimethyl",C3H7NO,,,a,2500,,,,,<,298.15,,473.2,28.5,,,,2,4.22
1,Alkyd resin,Homopolymer,2-Propanol,C3H8O,,,a,2500,,,,,<,298.15,,373.2,21.4,,,,2,9.65
2,Alkyd resin,Homopolymer,2-Propanol,C3H8O,,,a,2500,,,,,<,298.15,,398.2,10.6,,,,2,9.08
2,Alkyd resin,Homopolymer,2-Propanol,C3H8O,,,a,2500,,,,,<,298.15,,423.2,5.7,,,,2,9.01
2,Alkyd resin,Homopolymer,2-Propanol,C3H8O,,,a,2500,,,,,<,298.15,,448.2,3.6,,,,2,8.52
2,Alkyd resin,Homopolymer,2-Propanol,C3H8O,,,a,2500,,,,,<,298.15,,473.2,2.5,,,,2,8.07
2,Alkyd resin,Homopolymer,"Ethanol, 2-methoxy",C3H8O2,,,a,2500,,,,,<,298.15,,373.2,107.9,,,,2,6.29
2,Alkyd resin,Homopolymer,"Ethanol, 2-methoxy",C3H8O2,,,a,2500,,,,,<,298.15,,398.2,46.8,,,,2,6.39
2,Alkyd resin,Homopolymer,"Ethanol, 2-methoxy",C3H8O2,,,a,2500,,,,,<,298.15,,423.2,23.1,,,,2,6.38
2,Alkyd resin,Homopolymer,"Ethanol, 2-methoxy",C3H8O2,,,a,2500,,,,,<,298.15,,448.2,12.9,,,,2,6.14
2,Alkyd resin,Homopolymer,"Ethanol, 2-methoxy",C3H8O2,,,a,2500,,,,,<,298.15,,473.2,8.1,,,,2,5.61
2,Alkyd resin,Homopolymer,2-Butanone,C4H8O,,,a,2500,,,,,<,298.15,,373.2,29.9,,,,2,6.03
2,Alkyd resin,Homopolymer,2-Butanone,C4H8O,,,a,2500,,,,,<,298.15,,398.2,15.6,,,,2,6.28
2,Alkyd resin,Homopolymer,2-Butanone,C4H8O,,,a,2500,,,,,<,298.15,,423.2,9,,,,2,6.51
2,Alkyd resin,Homopolymer,2-Butanone,C4H8O,,,a,2500,,,,,<,298.15,,448.2,5.6,,,,2,6.78
2,Alkyd resin,Homopolymer,2-Butanone,C4H8O,,,a,2500,,,,,<,298.15,,473.2,3.7,,,,2,7.11
2,Alkyd resin,Homopolymer,"Acetic acid, ethyl ester",C4H8O2,,,a,2500,,,,,<,298.15,,373.2,21.9,,,,2,6.24
2,Alkyd resin,Homopolymer,"Acetic acid, ethyl ester",C4H8O2,,,a,2500,,,,,<,298.15,,398.2,11.7,,,,2,6.32
2,Alkyd resin,Homopolymer,"Acetic acid, ethyl ester",C4H8O2,,,a,2500,,,,,<,298.15,,423.2,6.6,,,,2,6.7
2,Alkyd resin,Homopolymer,"Acetic acid, ethyl ester",C4H8O2,,,a,2500,,,,,<,298.15,,448.2,4.2,,,,2,6.83
2,Alkyd resin,Homopolymer,"Acetic acid, ethyl ester",C4H8O2,,,a,2500,,,,,<,298.15,,473.2,2.6,,,,2,7.65
2,Alkyd resin,Homopolymer,1-Butanol,C4H10O,,,a,2500,,,,,<,298.15,,373.2,74.4,,,,2,8.21
2,Alkyd resin,Homopolymer,1-Butanol,C4H10O,,,a,2500,,,,,<,298.15,,398.2,32,,,,2,7.74
3,Alkyd resin,Homopolymer,1-Butanol,C4H10O,,,a,2500,,,,,<,298.15,,423.2,15.6,,,,2,7.46
3,Alkyd resin,Homopolymer,1-Butanol,C4H10O,,,a,2500,,,,,<,298.15,,448.2,9,,,,2,6.87
3,Alkyd resin,Homopolymer,1-Butanol,C4H10O,,,a,2500,,,,,<,298.15,,473.2,5.7,,,,2,6.38
3,Alkyd resin,Homopolymer,"Ethanol, 2-ethoxy",C4H10O2,,,a,2500,,,,,<,298.15,,373.2,139.7,,,,2,6.02
3,Alkyd resin,Homopolymer,"Ethanol, 2-ethoxy",C4H10O2,,,a,2500,,,,,<,298.15,,398.2,57.7,,,,2,6.12
3,Alkyd resin,Homopolymer,"Ethanol, 2-ethoxy",C4H10O2,,,a,2500,,,,,<,298.15,,423.2,27.1,,,,2,6.17
3,Alkyd resin,Homopolymer,"Ethanol, 2-ethoxy",C4H10O2,,,a,2500,,,,,<,298.15,,448.2,15.1,,,,2,5.77
3,Alkyd resin,Homopolymer,"Ethanol, 2-ethoxy",C4H10O2,,,a,2500,,,,,<,298.15,,473.2,9.1,,,,2,5.38
3,Alkyd resin,Homopolymer,Benzene,C6H6,,,a,2500,,,,,<,298.15,,323.2,124.5,,,,2,6.58
3,Alkyd resin,Homopolymer,Benzene,C6H6,,,a,2500,,,,,<,298.15,,348.2,53.3,,,,2,6.53
3,Alkyd resin,Homopolymer,Benzene,C6H6,,,a,2500,,,,,<,298.15,,373.2,27.2,,,,2,6.27
3,Alkyd resin,Homopolymer,Benzene,C6H6,,,a,2500,,,,,<,298.15,,373.2,26.4,,,,2,6.46
3,Alkyd resin,Homopolymer,Benzene,C6H6,,,a,2500,,,,,<,298.15,,398.2,14.9,,,,2,6.28
3,Alkyd resin,Homopolymer,Benzene,C6H6,,,a,2500,,,,,<,298.15,,398.2,15.5,,,,2,6.04
3,Alkyd resin,Homopolymer,Benzene,C6H6,,,a,2500,,,,,<,298.15,,423.2,9,,,,2,6.26
3,Alkyd resin,Homopolymer,Benzene,C6H6,,,a,2500,,,,,<,298.15,,423.2,9.1,,,,2,6.19
3,Alkyd resin,Homopolymer,Benzene,C6H6,,,a,2500,,,,,<,298.15,,448.2,5.8,,,,2,6.29
3,Alkyd resin,Homopolymer,Benzene,C6H6,,,a,2500,,,,,<,298.15,,473.2,4.2,,,,2,5.98
3,Alkyd resin,Homopolymer,Cyclohexanone,C6H10O,,,a,2500,,,,,<,298.15,,373.2,352,,,,2,3.53
3,Alkyd resin,Homopolymer,Cyclohexanone,C6H10O,,,a,2500,,,,,<,298.15,,398.2,158.7,,,,2,3.47
3,Alkyd resin,Homopolymer,Cyclohexanone,C6H10O,,,a,2500,,,,,<,298.15,,423.2,77.5,,,,2,3.56
3,Alkyd resin,Homopolymer,Cyclohexanone,C6H10O,,,a,2500,,,,,<,298.15,,448.2,38.5,,,,2,3.94
3,Alkyd resin,Homopolymer,Cyclohexanone,C6H10O,,,a,2500,,,,,<,298.15,,473.2,22.8,,,,2,3.97
4,Alkyd resin,Homopolymer,Cyclohexane,C6H12,,,a,2500,,,,,<,298.15,,323.3,51,,,,2,14.8
4,Alkyd resin,Homopolymer,Cyclohexane,C6H12,,,a,2500,,,,,<,298.15,,348.2,22.9,,,,2,14.3
4,Alkyd resin,Homopolymer,Cyclohexane,C6H12,,,a,2500,,,,,<,298.15,,373.2,12,,,,2,13.7
4,Alkyd resin,Homopolymer,Cyclohexane,C6H12,,,a,2500,,,,,<,298.15,,398.2,7.3,,,,2,12.5
4,Alkyd resin,Homopolymer,Cyclohexane,C6H12,,,a,2500,,,,,<,298.15,,423.2,4.6,,,,2,12
4,Alkyd resin,Homopolymer,"2-Pentanone, 4-methyl",C6H12O,,,a,2500,,,,,<,298.15,,373.2,61.6,,,,2,6.16
4,Alkyd resin,Homopolymer,"2-Pentanone, 4-methyl",C6H12O,,,a,2500,,,,,<,298.15,,398.2,29.3,,,,2,6.43
4,Alkyd resin,Homopolymer,"2-Pentanone, 4-methyl",C6H12O,,,a,2500,,,,,<,298.15,,423.2,15.6,,,,2,6.68
4,Alkyd resin,Homopolymer,"2-Pentanone, 4-methyl",C6H12O,,,a,2500,,,,,<,298.15,,448.2,9.1,,,,2,6.89
4,Alkyd resin,Homopolymer,"2-Pentanone, 4-methyl",C6H12O,,,a,2500,,,,,<,298.15,,473.2,5.9,,,,2,6.84
4,Alkyd resin,Homopolymer,"Acetic acid, butyl ester",C6H12O2,,,a,2500,,,,,<,298.15,,373.2,76.1,,,,2,5.94
4,Alkyd resin,Homopolymer,"Acetic acid, butyl ester",C6H12O2,,,a,2500,,,,,<,298.15,,398.2,34.2,,,,2,6.14
4,Alkyd resin,Homopolymer,"Acetic acid, butyl ester",C6H12O2,,,a,2500,,,,,<,298.15,,423.2,17.2,,,,2,6.41
4,Alkyd resin,Homopolymer,"Acetic acid, butyl ester",C6H12O2,,,a,2500,,,,,<,298.15,,448.2,9.9,,,,2,6.45
4,Alkyd resin,Homopolymer,"Acetic acid, butyl ester",C6H12O2,,,a,2500,,,,,<,298.15,,473.2,6.3,,,,2,6.38
4,Alkyd resin,Homopolymer,Hexane,C6H14,,,a,2500,,,,,<,298.15,,323.2,16.1,,,,2,31.3
4,Alkyd resin,Homopolymer,Hexane,C6H14,,,a,2500,,,,,<,298.15,,348.2,10.1,,,,2,22.7
4,Alkyd resin,Homopolymer,Hexane,C6H14,,,a,2500,,,,,<,298.15,,373.2,5.3,,,,2,22.5
4,Alkyd resin,Homopolymer,Hexane,C6H14,,,a,2500,,,,,<,298.15,,398.2,3.4,,,,2,20.3
4,Alkyd resin,Homopolymer,Hexane,C6H14,,,a,2500,,,,,<,298.15,,423.2,2.1,,,,2,20.6
5,Alkyd resin,Homopolymer,Toluene,C7H8,,,a,2500,,,,,<,298.15,,323.2,313.3,,,,2,6.48
5,Alkyd resin,Homopolymer,Toluene,C7H8,,,a,2500,,,,,<,298.15,,348.2,115.5,,,,2,6.68
5,Alkyd resin,Homopolymer,Toluene,C7H8,,,a,2500,,,,,<,298.15,,373.2,51,,,,2,6.74
5,Alkyd resin,Homopolymer,Toluene,C7H8,,,a,2500,,,,,<,298.15,,398.2,28.5,,,,2,6.09
5,Alkyd resin,Homopolymer,Toluene,C7H8,,,a,2500,,,,,<,298.15,,423.2,15.5,,,,2,6.27
6,Epoxy resin (Araldit 488),Homopolymer,"Methane, trichloro",CHCl3,,,,,,,,,,,,373.2,33.41,,,,58,1.99
6,Epoxy resin (Araldit 488),Homopolymer,Ethanol,C2H6O,,,,,,,,,,,,373.2,11.75,,,,58,19.8
6,Epoxy resin (Araldit 488),Homopolymer,"Propane, 2-nitro",C3H7NO2,,,,,,,,,,,,373.2,50.7,,,,58,9.41
6,Epoxy resin (Araldit 488),Homopolymer,2-Butanone,C4H8O,,,,,,,,,,,,373.2,23.45,,,,58,7.69
6,Epoxy resin (Araldit 488),Homopolymer,"Furane, tetrahydro",C4H8O,,,,,,,,,,,,373.2,25.71,,,,58,4.8
6,Epoxy resin (Araldit 488),Homopolymer,"Acetic acid, ethyl ester",C4H8O2,,,,,,,,,,,,373.2,15.32,,,,58,8.93
6,Epoxy resin (Araldit 488),Homopolymer,1-Butanol,C4H10O,,,,,,,,,,,,373.2,47.85,,,,58,12.8
6,Epoxy resin (Araldit 488),Homopolymer,Benzene,C6H6,,,,,,,,,,,,373.2,15.49,,,,58,11
6,Epoxy resin (Araldit 488),Homopolymer,Toluene,C7H8,,,,,,,,,,,,373.2,18.12,,,,58,19
7,Epoxy resin (Bakelite PKHH),Homopolymer,"Methane, trichloro",CHCl3,,,,,,,,,,,,373.2,19.05,,,,58,3.49
7,Epoxy resin (Bakelite PKHH),Homopolymer,Ethanol,C2H6O,,,,,,,,,,,,373.2,19.05,,,,58,12.2
7,Epoxy resin (Bakelite PKHH),Homopolymer,"Propane, 2-nitro",C3H7NO2,,,,,,,,,,,,373.2,76.4,,,,58,6.24
7,Epoxy resin (Bakelite PKHH),Homopolymer,2-Butanone,C4H8O,,,,,,,,,,,,373.2,54.32,,,,58,3.32
7,Epoxy resin (Bakelite PKHH),Homopolymer,"Furane, tetrahydro",C4H8O,,,,,,,,,,,,373.2,67.76,,,,58,1.82
7,Epoxy resin (Bakelite PKHH),Homopolymer,"Acetic acid, ethyl ester",C4H8O2,,,,,,,,,,,,373.2,32.2,,,,58,4.25
7,Epoxy resin (Bakelite PKHH),Homopolymer,1-Butanol,C4H10O,,,,,,,,,,,,373.2,63.82,,,,58,9.57
7,Epoxy resin (Bakelite PKHH),Homopolymer,Benzene,C6H6,,,,,,,,,,,,373.2,23.45,,,,58,7.27
7,Epoxy resin (Bakelite PKHH),Homopolymer,Toluene,C7H8,,,,,,,,,,,,373.2,43.64,,,,58,7.88
8,Epoxy resin (DER 684),Homopolymer,"Methane, trichloro",CHCl3,,,,,,,,,,,,373.2,16.98,,,,58,3.91
8,Epoxy resin (DER 684),Homopolymer,Ethanol,C2H6O,,,,,,,,,,,,373.2,15.85,,,,58,14.7
8,Epoxy resin (DER 684),Homopolymer,"Propane, 2-nitro",C3H7NO2,,,,,,,,,,,,373.2,50.1,,,,58,9.52
8,Epoxy resin (DER 684),Homopolymer,2-Butanone,C4H8O,,,,,,,,,,,,373.2,22.92,,,,58,7.87
8,Epoxy resin (DER 684),Homopolymer,"Furane, tetrahydro",C4H8O,,,,,,,,,,,,373.2,24.56,,,,58,5.02
8,Epoxy resin (DER 684),Homopolymer,"Acetic acid, ethyl ester",C4H8O2,,,,,,,,,,,,373.2,17.18,,,,58,7.96
8,Epoxy resin (DER 684),Homopolymer,1-Butanol,C4H10O,,,,,,,,,,,,373.2,51.26,,,,58,11.9
8,Epoxy resin (DER 684),Homopolymer,Benzene,C6H6,,,,,,,,,,,,373.2,19.05,,,,58,8.95
8,Epoxy resin (DER 684),Homopolymer,Toluene,C7H8,,,,,,,,,,,,373.2,20.61,,,,58,16.7
9,Epoxy resin (Eponol 55),Homopolymer,"Methane, trichloro",CHCl3,>,25000,,,,,,,,,,373.2,16.9,,,,2,3.93
9,Epoxy resin (Eponol 55),Homopolymer,"Methane, trichloro",CHCl3,>,25000,,,,,,,,,,398.2,9.9,,,,2,3.87
9,Epoxy resin (Eponol 55),Homopolymer,"Methane, trichloro",CHCl3,>,25000,,,,,,,,,,423.2,5.8,,,,2,4.14
9,Epoxy resin (Eponol 55),Homopolymer,"Methane, trichloro",CHCl3,>,25000,,,,,,,,,,448.2,4,,,,2,4.03
9,Epoxy resin (Eponol 55),Homopolymer,"Methane, trichloro",CHCl3,>,25000,,,,,,,,,,473.2,2.8,,,,2,4.09
9,Epoxy resin (Eponol 55),Homopolymer,"Acetic acid, nitrile",C2H3N,>,25000,,,,,,,,,,423.2,7.6,,,,2,15.1
9,Epoxy resin (Eponol 55),Homopolymer,"Acetic acid, nitrile",C2H3N,>,25000,,,,,,,,,,448.2,4.9,,,,2,15
9,Epoxy resin (Eponol 55),Homopolymer,"Acetic acid, nitrile",C2H3N,>,25000,,,,,,,,,,473.2,3.3,,,,2,15.2
9,Epoxy resin (Eponol 55),Homopolymer,"Formic acid, amide, N,N-dimethyl",C3H7NO,>,25000,,,,,,,,,,423.2,99.7,,,,2,3.44
9,Epoxy resin (Eponol 55),Homopolymer,"Formic acid, amide, N,N-dimethyl",C3H7NO,>,25000,,,,,,,,,,448.2,48.4,,,,2,4.03
9,Epoxy resin (Eponol 55),Homopolymer,"Formic acid, amide, N,N-dimethyl",C3H7NO,>,25000,,,,,,,,,,473.2,26.4,,,,2,4.56
9,Epoxy resin (Eponol 55),Homopolymer,2-Propanol,C3H8O,>,25000,,,,,,,,,,423.2,3.8,,,,2,13.5
9,Epoxy resin (Eponol 55),Homopolymer,2-Propanol,C3H8O,>,25000,,,,,,,,,,448.2,2.7,,,,2,11.4
9,Epoxy resin (Eponol 55),Homopolymer,2-Propanol,C3H8O,>,25000,,,,,,,,,,473.2,2,,,,2,10.1
9,Epoxy resin (Eponol 55),Homopolymer,"Ethanol, 2-methoxy",C3H8O2,>,25000,,,,,,,,,,423.2,19.3,,,,2,7.63
9,Epoxy resin (Eponol 55),Homopolymer,"Ethanol, 2-methoxy",C3H8O2,>,25000,,,,,,,,,,448.2,10.9,,,,2,7.26
9,Epoxy resin (Eponol 55),Homopolymer,"Ethanol, 2-methoxy",C3H8O2,>,25000,,,,,,,,,,473.2,6.9,,,,2,6.59
9,Epoxy resin (Eponol 55),Homopolymer,2-Butanone,C4H8O,>,25000,,,,,,,,,,423.2,6.8,,,,2,8.62
9,Epoxy resin (Eponol 55),Homopolymer,2-Butanone,C4H8O,>,25000,,,,,,,,,,448.2,4.6,,,,2,8.26
10,Epoxy resin (Eponol 55),Homopolymer,2-Butanone,C4H8O,>,25000,,,,,,,,,,473.2,3.1,,,,2,8.49
10,Epoxy resin (Eponol 55),Homopolymer,"Acetic acid, ethyl ester",C4H8O2,>,25000,,,,,,,,,,423.2,5.4,,,,2,8.19
10,Epoxy resin (Eponol 55),Homopolymer,"Acetic acid, ethyl ester",C4H8O2,>,25000,,,,,,,,,,448.2,3.8,,,,2,7.55
10,Epoxy resin (Eponol 55),Homopolymer,"Acetic acid, ethyl ester",C4H8O2,>,25000,,,,,,,,,,473.2,2.5,,,,2,7.95
10,Epoxy resin (Eponol 55),Homopolymer,1-Butanol,C4H10O,>,25000,,,,,,,,,,423.2,11.7,,,,2,9.94
10,Epoxy resin (Eponol 55),Homopolymer,1-Butanol,C4H10O,>,25000,,,,,,,,,,448.2,7.2,,,,2,8.58
10,Epoxy resin (Eponol 55),Homopolymer,1-Butanol,C4H10O,>,25000,,,,,,,,,,473.2,4.7,,,,2,7.73
10,Epoxy resin (Eponol 55),Homopolymer,"Ethanol, 2-ethoxy",C4H10O2,>,25000,,,,,,,,,,423.2,22.9,,,,2,7.31
10,Epoxy resin (Eponol 55),Homopolymer,"Ethanol, 2-ethoxy",C4H10O2,>,25000,,,,,,,,,,448.2,12.7,,,,2,6.86
10,Epoxy resin (Eponol 55),Homopolymer,"Ethanol, 2-ethoxy",C4H10O2,>,25000,,,,,,,,,,473.2,7.7,,,,2,6.36
10,Epoxy resin (Eponol 55),Homopolymer,Benzene,C6H6,>,25000,,,,,,,,,,373.2,20,,,,2,8.53
10,Epoxy resin (Eponol 55),Homopolymer,Benzene,C6H6,>,25000,,,,,,,,,,398.2,12,,,,2,7.8
10,Epoxy resin (Eponol 55),Homopolymer,Benzene,C6H6,>,25000,,,,,,,,,,423.2,6.9,,,,2,8.16
10,Epoxy resin (Eponol 55),Homopolymer,Benzene,C6H6,>,25000,,,,,,,,,,423.2,7.4,,,,2,7.61
10,Epoxy resin (Eponol 55),Homopolymer,Benzene,C6H6,>,25000,,,,,,,,,,448.2,5,,,,2,7.3
10,Epoxy resin (Eponol 55),Homopolymer,Benzene,C6H6,>,25000,,,,,,,,,,448.2,4.8,,,,2,7.6
10,Epoxy resin (Eponol 55),Homopolymer,Benzene,C6H6,>,25000,,,,,,,,,,473.2,3.5,,,,2,7.18
10,Epoxy resin (Eponol 55),Homopolymer,Benzene,C6H6,>,25000,,,,,,,,,,473.2,3.4,,,,2,7.39
10,Epoxy resin (Eponol 55),Homopolymer,Cyclohexanone,C6H10O,>,25000,,,,,,,,,,423.2,70.4,,,,2,3.91
11,Epoxy resin (Eponol 55),Homopolymer,Cyclohexanone,C6H10O,>,25000,,,,,,,,,,448.2,37,,,,2,4.1
11,Epoxy resin (Eponol 55),Homopolymer,Cyclohexanone,C6H10O,>,25000,,,,,,,,,,473.2,22.5,,,,2,4.02
11,Epoxy resin (Eponol 55),Homopolymer,"2-Pentanone, 4-methyl",C6H12O,>,25000,,,,,,,,,,423.2,10.8,,,,2,9.64
11,Epoxy resin (Eponol 55),Homopolymer,"2-Pentanone, 4-methyl",C6H12O,>,25000,,,,,,,,,,448.2,7,,,,2,8.96
11,Epoxy resin (Eponol 55),Homopolymer,"2-Pentanone, 4-methyl",C6H12O,>,25000,,,,,,,,,,473.2,4.8,,,,2,8.41
11,Epoxy resin (Eponol 55),Homopolymer,"Acetic acid, butyl ester",C6H12O2,>,25000,,,,,,,,,,423.2,13.3,,,,2,8.29
11,Epoxy resin (Eponol 55),Homopolymer,"Acetic acid, butyl ester",C6H12O2,>,25000,,,,,,,,,,448.2,7.6,,,,2,8.4
11,Epoxy resin (Eponol 55),Homopolymer,"Acetic acid, butyl ester",C6H12O2,>,25000,,,,,,,,,,473.2,5.2,,,,2,7.72
11,Epoxy resin (Eponol 55),Homopolymer,Toluene,C7H8,>,25000,,,,,,,,,,373.2,37.8,,,,2,9.1
11,Epoxy resin (Eponol 55),Homopolymer,Toluene,C7H8,>,25000,,,,,,,,,,398.2,20.8,,,,2,8.35
11,Epoxy resin (Eponol 55),Homopolymer,Toluene,C7H8,>,25000,,,,,,,,,,423.2,12.1,,,,2,8.03
11,Epoxy resin (Eponol 55),Homopolymer,Toluene,C7H8,>,25000,,,,,,,,,,448.2,7.5,,,,2,7.88
11,Epoxy resin (Eponol 55),Homopolymer,Toluene,C7H8,>,25000,,,,,,,,,,473.2,5.1,,,,2,7.55
12,Polyacrylonitrile,Homopolymer,Methanol,CH4O,,22600,,85880,,,,,,,,413,3.44,,,,98,21.6
12,Polyacrylonitrile,Homopolymer,"Acetic acid, nitrile",C2H3N,,22600,,85880,,,,,,,,413,5.28,,,,98,26.5
12,Polyacrylonitrile,Homopolymer,"1,2-Ethanediol",C2H6O2,,22600,,85880,,,,,,,,413,65.1,,,,98,42
12,Polyacrylonitrile,Homopolymer,"Formic acid, amide, N,N-dimethyl",C3H7NO,,22600,,85880,,,,,,,,413,25.5,,,,98,17.4
12,Polyacrylonitrile,Homopolymer,"Acetic acid, amide, N,N-dimethyl",C4H9NO,,22600,,85880,,,,,,,,413,21.6,,,,98,25.8
12,Polyacrylonitrile,Homopolymer,Aniline,C6H7N,,22600,,85880,,,,,,,,413,59.9,,,,98,14.9
12,Polyacrylonitrile,Homopolymer,Cyclohexanone,C6H10O,,22600,,85880,,,,,,,,413,2.47,,,,98,146
12,Polyacrylonitrile,Homopolymer,Benzaldehyde,C7H6O,,22600,,85880,,,,,,,,413,11.1,,,,98,58.6
12,Polyacrylonitrile,Homopolymer,"Benzene, butyl",C10H14,,22600,,85880,,,,,,,,413,1.2,,,,98,469
12,Polyacrylonitrile,Homopolymer,Dodecane,C12H26,,22600,,85880,,,,,,,,413,1.89,,,,98,675
13,Polyacrylonitrile,Homopolymer,Tetradecane,C14H30,,22600,,85880,,,,,,,,413,6.94,,,,98,552
13,Polyacrylonitrile,Homopolymer,Hexadecane,C16H34,,22600,,85880,,,,,,,,413,20,,,,98,572
14,Polyamide,Homopolymer,"Methane, trichloro",CHCl3,,,,,,,,,<,298.15,,348.2,78.1,,,,2,1.64
14,Polyamide,Homopolymer,"Methane, trichloro",CHCl3,,,,,,,,,<,298.15,,373.2,35.1,,,,2,1.89
14,Polyamide,Homopolymer,"Methane, trichloro",CHCl3,,,,,,,,,<,298.15,,398.2,18,,,,2,2.13
14,Polyamide,Homopolymer,"Methane, trichloro",CHCl3,,,,,,,,,<,298.15,,423.2,10.8,,,,2,2.22
14,Polyamide,Homopolymer,"Methane, trichloro",CHCl3,,,,,,,,,<,298.15,,448.2,6.5,,,,2,2.48
14,Polyamide,Homopolymer,"Methane, trichloro",CHCl3,,,,,,,,,<,298.15,,473.2,4.3,,,,2,2.67
14,Polyamide,Homopolymer,"Acetic acid, nitrile",C2H3N,,,,,,,,,<,298.15,,348.2,40.9,,,,2,17.8
14,Polyamide,Homopolymer,"Acetic acid, nitrile",C2H3N,,,,,,,,,<,298.15,,373.2,21.5,,,,2,16.5
14,Polyamide,Homopolymer,"Acetic acid, nitrile",C2H3N,,,,,,,,,<,298.15,,398.2,13,,,,2,14.8
14,Polyamide,Homopolymer,"Acetic acid, nitrile",C2H3N,,,,,,,,,<,298.15,,398.2,12.6,,,,2,15.3
14,Polyamide,Homopolymer,"Acetic acid, nitrile",C2H3N,,,,,,,,,<,298.15,,423.2,8.5,,,,2,13.5
14,Polyamide,Homopolymer,"Acetic acid, nitrile",C2H3N,,,,,,,,,<,298.15,,448.2,5.5,,,,2,13.3
14,Polyamide,Homopolymer,"Acetic acid, nitrile",C2H3N,,,,,,,,,<,298.15,,473.2,4.1,,,,2,12.2
14,Polyamide,Homopolymer,"Ethane, 1,2-dichloro",C2H4Cl2,,,,,,,,,<,298.15,,348.2,73.2,,,,2,4.18
14,Polyamide,Homopolymer,"Ethane, 1,2-dichloro",C2H4Cl2,,,,,,,,,<,298.15,,373.2,36.6,,,,2,3.97
14,Polyamide,Homopolymer,"Ethane, 1,2-dichloro",C2H4Cl2,,,,,,,,,<,298.15,,398.2,19,,,,2,4.06
14,Polyamide,Homopolymer,"Ethane, 1,2-dichloro",C2H4Cl2,,,,,,,,,<,298.15,,423.2,11.4,,,,2,3.95
14,Polyamide,Homopolymer,"Ethane, 1,2-dichloro",C2H4Cl2,,,,,,,,,<,298.15,,448.2,7.1,,,,2,3.98
14,Polyamide,Homopolymer,"Ethane, 1,2-dichloro",C2H4Cl2,,,,,,,,,<,298.15,,473.2,4.3,,,,2,4.41
14,Polyamide,Homopolymer,2-Propanol,C3H8O,,,,,,,,,<,298.15,,348.2,87.7,,,,2,5.94
14,Polyamide,Homopolymer,2-Propanol,C3H8O,,,,,,,,,<,298.15,,373.2,34.9,,,,2,5.92
14,Polyamide,Homopolymer,2-Propanol,C3H8O,,,,,,,,,<,298.15,,398.2,16.2,,,,2,5.94
14,Polyamide,Homopolymer,2-Propanol,C3H8O,,,,,,,,,<,298.15,,398.2,15.7,,,,2,6.13
15,Polyamide,Homopolymer,2-Propanol,C3H8O,,,,,,,,,<,298.15,,423.2,8.7,,,,2,5.9
15,Polyamide,Homopolymer,2-Propanol,C3H8O,,,,,,,,,<,298.15,,448.2,5.2,,,,2,5.9
15,Polyamide,Homopolymer,2-Propanol,C3H8O,,,,,,,,,<,298.15,,473.2,3.4,,,,2,5.93
15,Polyamide,Homopolymer,"Ethanol, 2-methoxy",C3H8O2,,,,,,,,,<,298.15,,348.2,419.6,,,,2,4.27
15,Polyamide,Homopolymer,"Ethanol, 2-methoxy",C3H8O2,,,,,,,,,<,298.15,,373.2,153.6,,,,2,4.42
15,Polyamide,Homopolymer,"Ethanol, 2-methoxy",C3H8O2,,,,,,,,,<,298.15,,398.2,64.4,,,,2,4.64