Page,Solute,Solute_type,Solvent,Solvent_formula,MN_symbol,MN,MW_symbol,MW,MV_symbol,MV,per composition,per substitution,Tg_symbol,Tg (K),Note,T (K),Vg (cm3/g),chi_inf,omega_inf,U/C,Ref,calc_omega_inf
112,Poly(ethylene oxide),Homopolymer,Octane,C8H18,,400,,436,,,,,,,,348.2,22.9,,,,64,46.3
113,Poly(ethylene oxide),Homopolymer,Octane,C8H18,,400,,436,,,,,,,,373.2,12.6,,,,64,35
113,Poly(ethylene oxide),Homopolymer,Octane,C8H18,,400,,436,,,,,,,,398.2,7.6,,,,64,27.8
113,Poly(ethylene oxide),Homopolymer,Octane,C8H18,,600,,654,,,,,,,,348.2,25.6,,,,64,41.4
113,Poly(ethylene oxide),Homopolymer,Octane,C8H18,,600,,654,,,,,,,,373.2,13.5,,,,64,32.7
113,Poly(ethylene oxide),Homopolymer,Octane,C8H18,,600,,654,,,,,,,,398.2,7.9,,,,64,26.7
113,Poly(ethylene oxide),Homopolymer,Octane,C8H18,,1000,,1090,,,,,,,,348.2,28.8,,,,64,36.8
113,Poly(ethylene oxide),Homopolymer,Octane,C8H18,,1000,,1090,,,,,,,,373.2,15.5,,,,64,28.5
113,Poly(ethylene oxide),Homopolymer,Octane,C8H18,,1000,,1090,,,,,,,,398.2,9.1,,,,64,23.2
113,Poly(ethylene oxide),Homopolymer,Octane,C8H18,,1000,,,,,,,,,17,343.4,32.5,,,,96,39.3
113,Poly(ethylene oxide),Homopolymer,Octane,C8H18,,1000,,,,,,,,,17,352.4,24.9,,,,96,36.3
113,Poly(ethylene oxide),Homopolymer,Octane,C8H18,,2000,,2180,,,,,,,,348.2,30.1,,,,64,35.2
113,Poly(ethylene oxide),Homopolymer,Octane,C8H18,,2000,,2180,,,,,,,,373.2,16.1,,,,64,27.4
113,Poly(ethylene oxide),Homopolymer,Octane,C8H18,,2000,,2180,,,,,,,,398.2,9.1,,,,64,23.2
113,Poly(ethylene oxide),Homopolymer,Octane,C8H18,,4000,,,,,,,,,28,334.7,,,37.9,C,90,
113,Poly(ethylene oxide),Homopolymer,Octane,C8H18,,4000,,,,,,,,,28,343.6,,,36.34,C,90,
113,Poly(ethylene oxide),Homopolymer,Octane,C8H18,,4000,,,,,,,,,28,353.5,,,33.95,C,90,
113,Poly(ethylene oxide),Homopolymer,Octane,C8H18,,4000,,,,,,,,,28,363.5,,,32.07,C,90,
113,Poly(ethylene oxide),Homopolymer,Octane,C8H18,,7500,,,,,,,,,29,345,,,34.57,C,90,
113,Poly(ethylene oxide),Homopolymer,Octane,C8H18,,7500,,,,,,,,,29,353.7,,,33.65,C,90,
113,Poly(ethylene oxide),Homopolymer,Octane,C8H18,,7500,,,,,,,,,29,364.2,,,31.66,C,90,
113,Poly(ethylene oxide),Homopolymer,Octane,C8H18,,7500,,,,,,,,,29,372.7,,,31.53,C,90,
113,Poly(ethylene oxide),Homopolymer,Octane,C8H18,,10000,,,,,,,,,30,344.2,,,31.34,C,90,
113,Poly(ethylene oxide),Homopolymer,Octane,C8H18,,10000,,,,,,,,,30,352.3,,,29.52,C,90,
113,Poly(ethylene oxide),Homopolymer,Octane,C8H18,,10000,,,,,,,,,30,362.6,,,27.8,C,90,
113,Poly(ethylene oxide),Homopolymer,Octane,C8H18,,10000,,,,,,,,,30,372.3,,,25.69,C,90,
113,Poly(ethylene oxide),Homopolymer,Octane,C8H18,,,,300000,,,,,,,,353.2,,,10.54,C,70,
113,Poly(ethylene oxide),Homopolymer,Octane,C8H18,,,,300000,,,,,,,,373.2,,,11.13,C,70,
113,Poly(ethylene oxide),Homopolymer,Octane,C8H18,,,,300000,,,,,,,,393.2,,,11.94,C,70,
114,Poly(ethylene oxide),Homopolymer,"Diethyleneglycol, diethyl ether",C8H18O3,,,,300000,,,,,,,,353.2,,,8.45,C,70,
114,Poly(ethylene oxide),Homopolymer,"Diethyleneglycol, diethyl ether",C8H18O3,,,,300000,,,,,,,,373.2,,,7.538,C,70,
114,Poly(ethylene oxide),Homopolymer,"Diethyleneglycol, diethyl ether",C8H18O3,,,,300000,,,,,,,,393.2,,,7.056,C,70,
114,Poly(ethylene oxide),Homopolymer,Nonane,C9H20,,1000,,,,,,,,,17,343.4,64.4,,,,96,44
114,Poly(ethylene oxide),Homopolymer,Nonane,C9H20,,1000,,,,,,,,,17,352.4,47.2,,,,96,40.9
114,Poly(ethylene oxide),Homopolymer,Nonane,C9H20,,4000,,,,,,,,,28,334.7,,,45.02,C,90,
114,Poly(ethylene oxide),Homopolymer,Nonane,C9H20,,4000,,,,,,,,,28,343.6,,,40.85,C,90,
114,Poly(ethylene oxide),Homopolymer,Nonane,C9H20,,4000,,,,,,,,,28,353.5,,,37.26,C,90,
114,Poly(ethylene oxide),Homopolymer,Nonane,C9H20,,4000,,,,,,,,,28,363.5,,,33.08,C,90,
114,Poly(ethylene oxide),Homopolymer,Nonane,C9H20,,7500,,,,,,,,,29,345,,,38.05,C,90,
114,Poly(ethylene oxide),Homopolymer,Nonane,C9H20,,7500,,,,,,,,,29,353.7,,,36.6,C,90,
114,Poly(ethylene oxide),Homopolymer,Nonane,C9H20,,7500,,,,,,,,,29,364.2,,,33.95,C,90,
114,Poly(ethylene oxide),Homopolymer,Nonane,C9H20,,7500,,,,,,,,,29,372.7,,,33.82,C,90,
114,Poly(ethylene oxide),Homopolymer,Nonane,C9H20,,10000,,,,,,,,,30,344.2,,,34.78,C,90,
114,Poly(ethylene oxide),Homopolymer,Nonane,C9H20,,10000,,,,,,,,,30,352.3,,,32.66,C,90,
114,Poly(ethylene oxide),Homopolymer,Nonane,C9H20,,10000,,,,,,,,,30,362.6,,,30.3,C,90,
114,Poly(ethylene oxide),Homopolymer,Nonane,C9H20,,10000,,,,,,,,,30,372.3,,,26.5,C,90,
114,Poly(ethylene oxide),Homopolymer,Decane,C10H22,,200,,218,,,,,,,,348.2,53.8,,,,64,94.2
114,Poly(ethylene oxide),Homopolymer,Decane,C10H22,,200,,218,,,,,,,,373.2,25.9,,,,64,66.6
114,Poly(ethylene oxide),Homopolymer,Decane,C10H22,,200,,218,,,,,,,,398.2,14,,,,64,49.4
114,Poly(ethylene oxide),Homopolymer,Decane,C10H22,,300,,327,,,,,,,,348.2,76.2,,,,64,66.5
114,Poly(ethylene oxide),Homopolymer,Decane,C10H22,,300,,327,,,,,,,,373.2,36.7,,,,64,47
114,Poly(ethylene oxide),Homopolymer,Decane,C10H22,,300,,327,,,,,,,,398.2,19.4,,,,64,35.6
114,Poly(ethylene oxide),Homopolymer,Decane,C10H22,,400,,436,,,,,,,,348.2,89.7,,,,64,56.5
114,Poly(ethylene oxide),Homopolymer,Decane,C10H22,,400,,436,,,,,,,,373.2,41.5,,,,64,41.6
115,Poly(ethylene oxide),Homopolymer,Decane,C10H22,,400,,436,,,,,,,,398.2,21.8,,,,64,31.7
115,Poly(ethylene oxide),Homopolymer,Decane,C10H22,,600,,654,,,,,,,,348.2,94.8,,,,64,53.5
115,Poly(ethylene oxide),Homopolymer,Decane,C10H22,,600,,654,,,,,,,,373.2,42.6,,,,64,40.5
115,Poly(ethylene oxide),Homopolymer,Decane,C10H22,,600,,654,,,,,,,,398.2,22.1,,,,64,31.3
115,Poly(ethylene oxide),Homopolymer,Decane,C10H22,,600,,,,,,,,,23,343.4,,,56.7,U,96,57
115,Poly(ethylene oxide),Homopolymer,Decane,C10H22,,1000,,1090,,,,,,,,348.2,112.8,,,,64,44.9
115,Poly(ethylene oxide),Homopolymer,Decane,C10H22,,1000,,1090,,,,,,,,373.2,51.6,,,,64,33.4
115,Poly(ethylene oxide),Homopolymer,Decane,C10H22,,1000,,1090,,,,,,,,398.2,23.8,,,,64,29
115,Poly(ethylene oxide),Homopolymer,Decane,C10H22,,1000,,,,,,,,,17,343.4,128,,,,96,49.8
115,Poly(ethylene oxide),Homopolymer,Decane,C10H22,,1000,,,,,,,,,17,352.4,90.5,,,,96,46.1
115,Poly(ethylene oxide),Homopolymer,Decane,C10H22,,2000,,2180,,,,,,,,348.2,115.8,,,,64,43.8
115,Poly(ethylene oxide),Homopolymer,Decane,C10H22,,2000,,2180,,,,,,,,373.2,53.2,,,,64,32.4
115,Poly(ethylene oxide),Homopolymer,Decane,C10H22,,2000,,2180,,,,,,,,398.2,26.7,,,,64,25.9
115,Poly(ethylene oxide),Homopolymer,Decane,C10H22,,2100,,,,,,,,,24,343.4,,,40.2,U,96,40.4
115,Poly(ethylene oxide),Homopolymer,Decane,C10H22,,3600,,,,,,,,,25,343.4,,,40.4,U,96,40.6
115,Poly(ethylene oxide),Homopolymer,Decane,C10H22,,4000,,,,,,,,,26,343.4,,,38.6,U,96,38.8
115,Poly(ethylene oxide),Homopolymer,Decane,C10H22,,10700,,11450,,,,,,,,343.2,134.6,,,,71,47.8
115,Poly(ethylene oxide),Homopolymer,Decane,C10H22,,10700,,11450,,,,,,,,373.2,50.6,,,,71,34.1
115,Poly(ethylene oxide),Homopolymer,Decane,C10H22,,10700,,11450,,,,,,,,393.2,28.62,,,,71,28.7
115,Poly(ethylene oxide),Homopolymer,Decane,C10H22,,10800,,,,,,,,,27,343.4,,,36.9,U,96,37.1
115,Poly(ethylene oxide),Homopolymer,Undecane,C11H24,,600,,,,,,,,,23,343.4,,,56.4,U,96,56.5
115,Poly(ethylene oxide),Homopolymer,Undecane,C11H24,,1000,,,,,,,,,17,343.4,252,,,,96,56
115,Poly(ethylene oxide),Homopolymer,Undecane,C11H24,,1000,,,,,,,,,17,352.4,173,,,,96,51
115,Poly(ethylene oxide),Homopolymer,Undecane,C11H24,,2100,,,,,,,,,24,343.4,,,38.5,U,96,38.6
115,Poly(ethylene oxide),Homopolymer,Undecane,C11H24,,3600,,,,,,,,,25,343.4,,,39.2,U,96,39.3
115,Poly(ethylene oxide),Homopolymer,Undecane,C11H24,,4000,,,,,,,,,26,343.4,,,37.5,U,96,37.6
115,Poly(ethylene oxide),Homopolymer,Undecane,C11H24,,10800,,,,,,,,,27,343.4,,,35.2,U,96,35.3
116,Poly(ethylene oxide),Homopolymer,Dodecane,C12H26,,200,,218,,,,,,,,348.2,187.5,,,,64,130
116,Poly(ethylene oxide),Homopolymer,Dodecane,C12H26,,200,,218,,,,,,,,373.2,77.9,,,,64,85.7
116,Poly(ethylene oxide),Homopolymer,Dodecane,C12H26,,200,,218,,,,,,,,398.2,37.4,,,,64,60.1
116,Poly(ethylene oxide),Homopolymer,Dodecane,C12H26,,300,,327,,,,,,,,348.2,298.3,,,,64,81.5
116,Poly(ethylene oxide),Homopolymer,Dodecane,C12H26,,300,,327,,,,,,,,373.2,130.7,,,,64,51.1
116,Poly(ethylene oxide),Homopolymer,Dodecane,C12H26,,300,,327,,,,,,,,398.2,59.5,,,,64,37.8
116,Poly(ethylene oxide),Homopolymer,Dodecane,C12H26,,400,,436,,,,,,,,348.2,361.9,,,,64,67.1
116,Poly(ethylene oxide),Homopolymer,Dodecane,C12H26,,400,,436,,,,,,,,373.2,139,,,,64,48
116,Poly(ethylene oxide),Homopolymer,Dodecane,C12H26,,400,,436,,,,,,,,398.2,62.3,,,,64,36.1
116,Poly(ethylene oxide),Homopolymer,Dodecane,C12H26,,600,,654,,,,,,,,348.2,367.3,,,,64,66.2
116,Poly(ethylene oxide),Homopolymer,Dodecane,C12H26,,600,,654,,,,,,,,373.2,138.6,,,,64,48.2
116,Poly(ethylene oxide),Homopolymer,Dodecane,C12H26,,600,,654,,,,,,,,398.2,62.3,,,,64,36.1
116,Poly(ethylene oxide),Homopolymer,Dodecane,C12H26,,600,,,,,,,,,23,343.4,,,76.6,U,96,76.7
116,Poly(ethylene oxide),Homopolymer,Dodecane,C12H26,,1000,,1090,,,,,,,,348.2,427.8,,,,64,56.8
116,Poly(ethylene oxide),Homopolymer,Dodecane,C12H26,,1000,,1090,,,,,,,,373.2,170.2,,,,64,39.2
116,Poly(ethylene oxide),Homopolymer,Dodecane,C12H26,,1000,,1090,,,,,,,,398.2,73.8,,,,64,30.5
116,Poly(ethylene oxide),Homopolymer,Dodecane,C12H26,,1000,,,,,,,,,17,343.4,499,,,,96,64.1
116,Poly(ethylene oxide),Homopolymer,Dodecane,C12H26,,1000,,,,,,,,,17,352.4,374,,,,96,51.5
116,Poly(ethylene oxide),Homopolymer,Dodecane,C12H26,,2000,,2180,,,,,,,,348.2,479.5,,,,64,50.7
116,Poly(ethylene oxide),Homopolymer,Dodecane,C12H26,,2000,,2180,,,,,,,,373.2,173,,,,64,38.6
116,Poly(ethylene oxide),Homopolymer,Dodecane,C12H26,,2000,,2180,,,,,,,,398.2,79.1,,,,64,28.4
116,Poly(ethylene oxide),Homopolymer,Dodecane,C12H26,,2100,,,,,,,,,24,343.4,,,51.8,U,96,51.9
116,Poly(ethylene oxide),Homopolymer,Dodecane,C12H26,,3600,,,,,,,,,25,343.4,,,52.4,U,96,52.5
116,Poly(ethylene oxide),Homopolymer,Dodecane,C12H26,,4000,,,,,,,,,26,343.4,,,47.8,U,96,47.9
116,Poly(ethylene oxide),Homopolymer,Dodecane,C12H26,,10700,,11450,,,,,,,,373.2,124.6,,,,71,53.6
116,Poly(ethylene oxide),Homopolymer,Dodecane,C12H26,,10700,,11450,,,,,,,,393.2,54.1,,,,71,50.9
116,Poly(ethylene oxide),Homopolymer,Dodecane,C12H26,,10800,,,,,,,,,27,343.4,,,47.8,U,96,47.9
117,Poly(ethylene oxide),Homopolymer,Water,H2O,a,400,,,,,,,,,,333.2,,,10.9,U,73,11
117,Poly(ethylene oxide),Homopolymer,Water,H2O,a,400,,,,,,,,,,343.2,,,12.1,U,73,
117,Poly(ethylene oxide),Homopolymer,Water,H2O,a,400,,,,,,,,,,348.2,,,12.7,U,73,
117,Poly(ethylene oxide),Homopolymer,Water,H2O,a,400,,,,,,,,,,353.2,,,13.2,U,73,
117,Poly(ethylene oxide),Homopolymer,Water,H2O,a,400,,,,,,,,,,358.2,,,14,U,73,
117,Poly(ethylene oxide),Homopolymer,Water,H2O,a,400,,,,,,,,,,363.2,,,14.2,U,73,
117,Poly(ethylene oxide),Homopolymer,Water,H2O,a,400,,,,,,,,,,368.2,,,14.5,U,73,
117,Poly(ethylene oxide),Homopolymer,Water,H2O,a,400,,,,,,,,,,373.2,,,14.8,U,73,
117,Poly(ethylene oxide),Homopolymer,Water,H2O,a,400,,,,,,,,,,378.2,,,15,U,73,
117,Poly(ethylene oxide),Homopolymer,Water,H2O,a,400,,,,,,,,,,383.2,,,15.2,U,73,
117,Poly(ethylene oxide),Homopolymer,Water,H2O,a,400,,,,,,,,,,393.2,,,16.1,U,73,
117,Poly(ethylene oxide),Homopolymer,Water,H2O,a,400,,,,,,,,,,403.2,,,16.9,U,73,
117,Poly(ethylene oxide),Homopolymer,Water,H2O,a,600,,,,,,,,,,328.2,,,11.1,U,73,11.1
117,Poly(ethylene oxide),Homopolymer,Water,H2O,a,600,,,,,,,,,,333.2,,,11.4,U,73,11.5
117,Poly(ethylene oxide),Homopolymer,Water,H2O,a,600,,,,,,,,,,343.2,,,13.2,U,73,
117,Poly(ethylene oxide),Homopolymer,Water,H2O,a,600,,,,,,,,,,348.2,,,14.2,U,73,
117,Poly(ethylene oxide),Homopolymer,Water,H2O,a,600,,,,,,,,,,353.2,,,15.2,U,73,
117,Poly(ethylene oxide),Homopolymer,Water,H2O,a,600,,,,,,,,,,358.2,,,16.5,U,73,
117,Poly(ethylene oxide),Homopolymer,Water,H2O,a,600,,,,,,,,,,363.2,,,17.8,U,73,
117,Poly(ethylene oxide),Homopolymer,Water,H2O,a,600,,,,,,,,,,368.2,,,18.9,U,73,
117,Poly(ethylene oxide),Homopolymer,Water,H2O,a,600,,,,,,,,,,373.2,,,19.6,U,73,
117,Poly(ethylene oxide),Homopolymer,Water,H2O,a,600,,,,,,,,,,378.2,,,20.2,U,73,
117,Poly(ethylene oxide),Homopolymer,Water,H2O,a,600,,,,,,,,,,383.2,,,20.7,U,73,
117,Poly(ethylene oxide),Homopolymer,Water,H2O,a,600,,,,,,,,,,393.2,,,21.6,U,73,
117,Poly(ethylene oxide),Homopolymer,Water,H2O,a,600,,,,,,,,,,403.2,,,22.8,U,73,
117,Poly(ethylene oxide),Homopolymer,Water,H2O,a,600,,,,,,,,,,413.2,,,23.6,U,73,
117,Poly(ethylene oxide),Homopolymer,Water,H2O,a,1000,,,,,,,,,,323.2,,,14,U,73,14.1
117,Poly(ethylene oxide),Homopolymer,Water,H2O,a,1000,,,,,,,,,,333.2,,,15.8,U,73,15.9
117,Poly(ethylene oxide),Homopolymer,Water,H2O,a,1000,,,,,,,,,,338.2,,,17.1,U,73,
118,Poly(ethylene oxide),Homopolymer,Water,H2O,a,1000,,,,,,,,,,343.2,,,18,U,73,
118,Poly(ethylene oxide),Homopolymer,Water,H2O,a,1000,,,,,,,,,,348.2,,,18.5,U,73,
118,Poly(ethylene oxide),Homopolymer,Water,H2O,a,1000,,,,,,,,,,353.2,,,19.4,U,73,
118,Poly(ethylene oxide),Homopolymer,Water,H2O,a,1000,,,,,,,,,,358.2,,,20.1,U,73,
118,Poly(ethylene oxide),Homopolymer,Water,H2O,a,1000,,,,,,,,,,363.2,,,20.8,U,73,
118,Poly(ethylene oxide),Homopolymer,Water,H2O,a,1000,,,,,,,,,,368.2,,,21.7,U,73,
118,Poly(ethylene oxide),Homopolymer,Water,H2O,a,1000,,,,,,,,,,373.2,,,23.4,U,73,
118,Poly(ethylene oxide),Homopolymer,Water,H2O,a,1000,,,,,,,,,,383.2,,,27,U,73,
118,Poly(ethylene oxide),Homopolymer,Water,H2O,a,1000,,,,,,,,,,393.2,,,29.8,U,73,
118,Poly(ethylene oxide),Homopolymer,Water,H2O,a,1000,,,,,,,,,,403.2,,,32.9,U,73,
118,Poly(ethylene oxide),Homopolymer,Water,H2O,a,1000,,,,,,,,,,413.2,,,36,U,73,
118,Poly(ethylene oxide),Homopolymer,Water,H2O,a,1500,,,,,,,,,,323.2,,,14.6,U,73,14.7
118,Poly(ethylene oxide),Homopolymer,Water,H2O,a,1500,,,,,,,,,,333.2,,,16.4,U,73,16.5
118,Poly(ethylene oxide),Homopolymer,Water,H2O,a,1500,,,,,,,,,,338.2,,,17.1,U,73,
118,Poly(ethylene oxide),Homopolymer,Water,H2O,a,1500,,,,,,,,,,343.2,,,18.5,U,73,
118,Poly(ethylene oxide),Homopolymer,Water,H2O,a,1500,,,,,,,,,,348.2,,,19.8,U,73,
118,Poly(ethylene oxide),Homopolymer,Water,H2O,a,1500,,,,,,,,,,353.2,,,20.7,U,73,
118,Poly(ethylene oxide),Homopolymer,Water,H2O,a,1500,,,,,,,,,,358.2,,,22.6,U,73,
118,Poly(ethylene oxide),Homopolymer,Water,H2O,a,1500,,,,,,,,,,363.2,,,24.4,U,73,
118,Poly(ethylene oxide),Homopolymer,Water,H2O,a,1500,,,,,,,,,,368.2,,,27,U,73,
118,Poly(ethylene oxide),Homopolymer,Water,H2O,a,1500,,,,,,,,,,373.2,,,29,U,73,
118,Poly(ethylene oxide),Homopolymer,Water,H2O,a,1500,,,,,,,,,,378.2,,,30.7,U,73,
118,Poly(ethylene oxide),Homopolymer,Water,H2O,a,1500,,,,,,,,,,383.2,,,32.5,U,73,
118,Poly(ethylene oxide),Homopolymer,Water,H2O,a,1500,,,,,,,,,,393.2,,,35.7,U,73,
118,Poly(ethylene oxide),Homopolymer,Water,H2O,a,1500,,,,,,,,,,403.2,,,38.2,U,73,
118,Poly(ethylene oxide),Homopolymer,Water,H2O,a,1500,,,,,,,,,,413.2,,,41.2,U,73,
118,Poly(ethylene oxide),Homopolymer,Water,H2O,a,7500,,,,,,,,,,353.2,,,17.9,U,73,
118,Poly(ethylene oxide),Homopolymer,Water,H2O,a,7500,,,,,,,,,,358.2,,,20,U,73,
118,Poly(ethylene oxide),Homopolymer,Water,H2O,a,7500,,,,,,,,,,363.2,,,21.6,U,73,
119,Poly(ethylene oxide),Homopolymer,Water,H2O,a,7500,,,,,,,,,,368.2,,,24.6,U,73,
119,Poly(ethylene oxide),Homopolymer,Water,H2O,a,7500,,,,,,,,,,373.2,,,27,U,73,
119,Poly(ethylene oxide),Homopolymer,Water,H2O,a,7500,,,,,,,,,,378.2,,,30.4,U,73,
119,Poly(ethylene oxide),Homopolymer,Water,H2O,a,7500,,,,,,,,,,383.2,,,33.7,U,73,
119,Poly(ethylene oxide),Homopolymer,Water,H2O,a,7500,,,,,,,,,,393.2,,,42.4,U,73,
119,Poly(ethylene oxide),Homopolymer,Water,H2O,a,7500,,,,,,,,,,403.2,,,51.6,U,73,
119,Poly(ethylene oxide),Homopolymer,Water,H2O,a,7500,,,,,,,,,,413.2,,,64.5,U,73,
119,Poly(ethylene oxide),Homopolymer,Water,H2O,,,a,4000000,,,,,,,18,343.4,283.93,,,,55,
119,Poly(ethylene oxide),Homopolymer,Water,H2O,,,a,4000000,,,,,,,18,348.4,219.66,,,,55,
119,Poly(ethylene oxide),Homopolymer,Water,H2O,,,a,4000000,,,,,,,18,361.4,131,,,,55,
119,Poly(ethylene oxide),Homopolymer,Water,H2O,,,a,4000000,,,,,,,18,375.1,67.86,,,,55,
119,Poly(ethylene oxide),Homopolymer,Water,H2O,,,a,4000000,,,,,,,18,398.9,31.49,,,,55,
119,Poly(ethylene oxide),Homopolymer,Water,H2O,,,a,4000000,,,,,,,18,423.7,15.74,,,,55,
120,Poly(ethylene succinate),Homopolymer,"Methane, tetrachloro",CCl4,,4100,,9100,,,,,,,31,393.2,5.6,,,,37,9.1
120,Poly(ethylene succinate),Homopolymer,"Methane, trichloro",CHCl3,,4100,,9100,,,,,,,31,393.2,11.5,,,,37,3.69
120,Poly(ethylene succinate),Homopolymer,"Methane, dichloro",CH2Cl2,,4100,,9100,,,,,,,31,393.2,7.8,,,,37,4.29
120,Poly(ethylene succinate),Homopolymer,2-Propanone,C3H6O,,4100,,9100,,,,,,,31,393.2,8,,,,37,9.31
120,Poly(ethylene succinate),Homopolymer,2-Butanone,C4H8O,,4100,,9100,,,,,,,31,393.2,11.2,,,,37,9.8
120,Poly(ethylene succinate),Homopolymer,"Acetic acid, ethyl ester",C4H8O2,,4100,,9100,,,,,,,31,393.2,9.2,,,,37,9.01
120,Poly(ethylene succinate),Homopolymer,Pentane,C5H12,,4100,,9100,,,,,,,31,393.2,0.5,,,,37,85.3
120,Poly(ethylene succinate),Homopolymer,Benzene,C6H6,,4100,,9100,,,,,,,31,393.2,11.1,,,,37,9.43
120,Poly(ethylene succinate),Homopolymer,Hexane,C6H14,,4100,,9100,,,,,,,31,393.2,1.9,,,,37,40.2
120,Poly(ethylene succinate),Homopolymer,Heptane,C7H16,,4100,,9100,,,,,,,31,393.2,3.6,,,,37,37.5
121,Poly(ethyl methacrylate),Homopolymer,"Methane, tetrachloro",CCl4,,144000,,,,,,,,,,417.7,,,4.56,C,6,
121,Poly(ethyl methacrylate),Homopolymer,"Methane, trichloro",CHCl3,,40000,,,,,,,,,,393.2,25.9,,,,69,1.64
121,Poly(ethyl methacrylate),Homopolymer,"Methane, trichloro",CHCl3,,144000,,,,,,,,,,417.7,,,2.292,C,6,
121,Poly(ethyl methacrylate),Homopolymer,"Methane, nitro",CH3NO2,,144000,,,,,,,,,,417.7,,,6.95,C,6,
121,Poly(ethyl methacrylate),Homopolymer,"Acetic acid, nitrile",C2H3N,,40000,,,,,,,,,,393.2,17.8,,,,69,12.1
121,Poly(ethyl methacrylate),Homopolymer,"Acetic acid, nitrile",C2H3N,,144000,,,,,,,,,,417.7,,,12.902,C,6,
121,Poly(ethyl methacrylate),Homopolymer,"Ethane, nitro",C2H5NO2,,144000,,,,,,,,,,417.7,,,6.08,C,6,
121,Poly(ethyl methacrylate),Homopolymer,"Propenoic acid, nitrile",C3H3N,,144000,,,,,,,,,,417.7,,,8.543,C,6,
121,Poly(ethyl methacrylate),Homopolymer,"Propanoic acid, nitrile",C3H5N,,144000,,,,,,,,,,417.7,,,10.16,C,6,
121,Poly(ethyl methacrylate),Homopolymer,2-Propanone,C3H6O,,40000,,,,,,,,,,393.2,8.1,,,,69,9.2
121,Poly(ethyl methacrylate),Homopolymer,2-Propanone,C3H6O,,144000,,,,,,,,,,417.7,,,9.037,C,6,
121,Poly(ethyl methacrylate),Homopolymer,Propanoic acid,C3H6O2,,144000,,,,,,,,,,417.7,,,50.779,C,6,
122,Poly(ethyl methacrylate),Homopolymer,"Propane, 1-nitro",C3H7NO2,,144000,,,,,,,,,,417.7,,,5.47,C,6,
122,Poly(ethyl methacrylate),Homopolymer,1-Propanol,C3H8O,,40000,,,,,,,,,,393.2,15.5,,,,69,11.6
122,Poly(ethyl methacrylate),Homopolymer,1-Propanol,C3H8O,,144000,,,,,,,,,,417.7,,,9.811,C,6,
122,Poly(ethyl methacrylate),Homopolymer,Butanal,C4H8O,,144000,,,,,,,,,,417.7,,,7.575,C,6,
122,Poly(ethyl methacrylate),Homopolymer,2-Butanone,C4H8O,,40000,,,,,,,,,,393.2,13.5,,,,69,8.13
122,Poly(ethyl methacrylate),Homopolymer,2-Butanone,C4H8O,,144000,,,,,,,,,,417.7,,,7.71,C,6,
122,Poly(ethyl methacrylate),Homopolymer,"Acetic acid, ethyl ester",C4H8O2,,40000,,,,,,,,,,393.2,11.5,,,,69,7.21
122,Poly(ethyl methacrylate),Homopolymer,"Butane, 1-bromo",C4H9Br,,144000,,,,,,,,,,417.7,,,4.355,C,6,
122,Poly(ethyl methacrylate),Homopolymer,1-Butanol,C4H10O,,144000,,,,,,,,,,417.7,,,8.339,C,6,
122,Poly(ethyl methacrylate),Homopolymer,"Amine, butyl",C4H11N,,144000,,,,,,,,,,417.7,,,10.44,C,6,
122,Poly(ethyl methacrylate),Homopolymer,"Acetic acid, propyl ester",C5H10O2,,144000,,,,,,,,,,417.7,,,7.009,C,6,
123,Poly(ethyl methacrylate),Homopolymer,1-Pentanol,C5H12O,,144000,,,,,,,,,,417.7,,,7.4,C,6,
123,Poly(ethyl methacrylate),Homopolymer,"Benzene, bromo",C6H5Br,,144000,,,,,,,,,,419.7,,,2.815,C,6,
123,Poly(ethyl methacrylate),Homopolymer,"Benzene, chloro",C6H5Cl,,144000,,,,,,,,,,419.7,,,3.916,C,6,
123,Poly(ethyl methacrylate),Homopolymer,Benzene,C6H6,,144000,,,,,,,,,,417.7,,,5.655,C,6,
123,Poly(ethyl methacrylate),Homopolymer,Cyclohexane,C6H12,,144000,,,,,,,,,,417.7,,,16.142,C,6,
123,Poly(ethyl methacrylate),Homopolymer,"Acetic acid, butyl ester",C6H12O2,,144000,,,,,,,,,,417.7,,,6.727,C,6,
123,Poly(ethyl methacrylate),Homopolymer,Hexane,C6H14,,40000,,,,,,,,,,393.2,2.4,,,,69,31.8