Page,Solute,Solute_type,Solvent,Solvent_formula,MN_symbol,MN,MW_symbol,MW,MV_symbol,MV,per composition,per substitution,Tg_symbol,Tg (K),Note,T (K),Vg (cm3/g),chi_inf,omega_inf,U/C,Ref,calc_omega_inf
15,Polyamide,Homopolymer,"Ethanol, 2-methoxy",C3H8O2,,,,,,,,,<,298.15,,423.2,32.7,,,,2,4.51
15,Polyamide,Homopolymer,"Ethanol, 2-methoxy",C3H8O2,,,,,,,,,<,298.15,,448.2,16.6,,,,2,4.77
15,Polyamide,Homopolymer,"Ethanol, 2-methoxy",C3H8O2,,,,,,,,,<,298.15,,473.2,10.8,,,,2,4.21
15,Polyamide,Homopolymer,2-Butanone,C4H8O,,,,,,,,,<,298.15,,348.2,38.8,,,,2,9.64
15,Polyamide,Homopolymer,2-Butanone,C4H8O,,,,,,,,,<,298.15,,373.2,19.7,,,,2,9.16
15,Polyamide,Homopolymer,2-Butanone,C4H8O,,,,,,,,,<,298.15,,398.2,11.2,,,,2,8.75
15,Polyamide,Homopolymer,2-Butanone,C4H8O,,,,,,,,,<,298.15,,398.2,11.3,,,,2,8.67
15,Polyamide,Homopolymer,2-Butanone,C4H8O,,,,,,,,,<,298.15,,423.2,7,,,,2,8.37
15,Polyamide,Homopolymer,2-Butanone,C4H8O,,,,,,,,,<,298.15,,448.2,4.4,,,,2,8.63
15,Polyamide,Homopolymer,2-Butanone,C4H8O,,,,,,,,,<,298.15,,473.2,3,,,,2,8.77
15,Polyamide,Homopolymer,"Acetic acid, ethyl ester",C4H8O2,,,,,,,,,<,298.15,,348.2,29.1,,,,2,9.85
15,Polyamide,Homopolymer,"Acetic acid, ethyl ester",C4H8O2,,,,,,,,,<,298.15,,373.2,14.3,,,,2,9.56
15,Polyamide,Homopolymer,"Acetic acid, ethyl ester",C4H8O2,,,,,,,,,<,298.15,,398.2,8.3,,,,2,8.91
15,Polyamide,Homopolymer,"Acetic acid, ethyl ester",C4H8O2,,,,,,,,,<,298.15,,423.2,5.2,,,,2,8.5
15,Polyamide,Homopolymer,"Acetic acid, ethyl ester",C4H8O2,,,,,,,,,<,298.15,,448.2,3.3,,,,2,8.69
15,Polyamide,Homopolymer,"Acetic acid, ethyl ester",C4H8O2,,,,,,,,,<,298.15,,473.2,2.2,,,,2,9.04
16,Polyamide,Homopolymer,"1,4-Dioxane",C4H8O2,,,,,,,,,<,298.15,,348.2,95,,,,2,6.59
16,Polyamide,Homopolymer,"1,4-Dioxane",C4H8O2,,,,,,,,,<,298.15,,373.2,44.4,,,,2,6.31
16,Polyamide,Homopolymer,"1,4-Dioxane",C4H8O2,,,,,,,,,<,298.15,,398.2,22.7,,,,2,6.23
16,Polyamide,Homopolymer,"1,4-Dioxane",C4H8O2,,,,,,,,,<,298.15,,398.2,23,,,,2,6.15
16,Polyamide,Homopolymer,"1,4-Dioxane",C4H8O2,,,,,,,,,<,298.15,,423.2,15.6,,,,2,5.07
16,Polyamide,Homopolymer,"1,4-Dioxane",C4H8O2,,,,,,,,,<,298.15,,448.2,8.9,,,,2,5.4
16,Polyamide,Homopolymer,"1,4-Dioxane",C4H8O2,,,,,,,,,<,298.15,,473.2,6.1,,,,2,5.14
16,Polyamide,Homopolymer,1-Butanol,C4H10O,,,,,,,,,<,298.15,,348.2,417.8,,,,2,4.32
16,Polyamide,Homopolymer,1-Butanol,C4H10O,,,,,,,,,<,298.15,,373.2,138.5,,,,2,4.41
16,Polyamide,Homopolymer,1-Butanol,C4H10O,,,,,,,,,<,298.15,,398.2,54.4,,,,2,4.55
16,Polyamide,Homopolymer,1-Butanol,C4H10O,,,,,,,,,<,298.15,,423.2,26.5,,,,2,4.39
16,Polyamide,Homopolymer,1-Butanol,C4H10O,,,,,,,,,<,298.15,,448.2,13.6,,,,2,4.54
16,Polyamide,Homopolymer,1-Butanol,C4H10O,,,,,,,,,<,298.15,,473.2,7.7,,,,2,4.72
16,Polyamide,Homopolymer,"Ethanol, 2-ethoxy",C4H10O2,,,,,,,,,<,298.15,,348.2,558.6,,,,2,4.19
16,Polyamide,Homopolymer,"Ethanol, 2-ethoxy",C4H10O2,,,,,,,,,<,298.15,,373.2,193,,,,2,4.36
16,Polyamide,Homopolymer,"Ethanol, 2-ethoxy",C4H10O2,,,,,,,,,<,298.15,,398.2,77.2,,,,2,4.58
16,Polyamide,Homopolymer,"Ethanol, 2-ethoxy",C4H10O2,,,,,,,,,<,298.15,,423.2,37.6,,,,2,4.45
16,Polyamide,Homopolymer,"Ethanol, 2-ethoxy",C4H10O2,,,,,,,,,<,298.15,,448.2,19,,,,2,4.59
16,Polyamide,Homopolymer,"Ethanol, 2-ethoxy",C4H10O2,,,,,,,,,<,298.15,,473.2,11.5,,,,2,4.26
16,Polyamide,Homopolymer,Benzene,C6H6,,,,,,,,,<,298.15,,348.2,56.5,,,,2,6.16
16,Polyamide,Homopolymer,Benzene,C6H6,,,,,,,,,<,298.15,,373.2,27.5,,,,2,6.2
16,Polyamide,Homopolymer,Benzene,C6H6,,,,,,,,,<,298.15,,398.2,14.8,,,,2,6.33
16,Polyamide,Homopolymer,Benzene,C6H6,,,,,,,,,<,298.15,,398.2,15.1,,,,2,6.2
17,Polyamide,Homopolymer,Benzene,C6H6,,,,,,,,,<,298.15,,423.2,9.4,,,,2,5.99
17,Polyamide,Homopolymer,Benzene,C6H6,,,,,,,,,<,298.15,,448.2,6,,,,2,6.08
17,Polyamide,Homopolymer,Benzene,C6H6,,,,,,,,,<,298.15,,473.2,3.9,,,,2,6.44
17,Polyamide,Homopolymer,"2-Pentanone, 4-methyl",C6H12O,,,,,,,,,<,298.15,,348.2,96,,,,2,9.15
17,Polyamide,Homopolymer,"2-Pentanone, 4-methyl",C6H12O,,,,,,,,,<,298.15,,373.2,42.8,,,,2,8.86
17,Polyamide,Homopolymer,"2-Pentanone, 4-methyl",C6H12O,,,,,,,,,<,298.15,,398.2,22.1,,,,2,8.52
17,Polyamide,Homopolymer,"2-Pentanone, 4-methyl",C6H12O,,,,,,,,,<,298.15,,423.2,13.2,,,,2,7.89
17,Polyamide,Homopolymer,"2-Pentanone, 4-methyl",C6H12O,,,,,,,,,<,298.15,,448.2,8.6,,,,2,7.29
17,Polyamide,Homopolymer,"2-Pentanone, 4-methyl",C6H12O,,,,,,,,,<,298.15,,473.2,6.1,,,,2,6.62
17,Polyamide,Homopolymer,"Acetic acid, butyl ester",C6H12O2,,,,,,,,,<,298.15,,348.2,126.7,,,,2,8.89
17,Polyamide,Homopolymer,"Acetic acid, butyl ester",C6H12O2,,,,,,,,,<,298.15,,373.2,52.7,,,,2,8.57
17,Polyamide,Homopolymer,"Acetic acid, butyl ester",C6H12O2,,,,,,,,,<,298.15,,398.2,25.4,,,,2,8.27
17,Polyamide,Homopolymer,"Acetic acid, butyl ester",C6H12O2,,,,,,,,,<,298.15,,423.2,13.7,,,,2,8.04
17,Polyamide,Homopolymer,"Acetic acid, butyl ester",C6H12O2,,,,,,,,,<,298.15,,448.2,8.8,,,,2,7.26
17,Polyamide,Homopolymer,"Acetic acid, butyl ester",C6H12O2,,,,,,,,,<,298.15,,473.2,5.6,,,,2,7.17
17,Polyamide,Homopolymer,Toluene,C7H8,,,,,,,,,<,298.15,,348.2,121.1,,,,2,6.38
17,Polyamide,Homopolymer,Toluene,C7H8,,,,,,,,,<,298.15,,373.2,53.6,,,,2,6.41
17,Polyamide,Homopolymer,Toluene,C7H8,,,,,,,,,<,298.15,,398.2,27.1,,,,2,6.41
17,Polyamide,Homopolymer,Toluene,C7H8,,,,,,,,,<,298.15,,423.2,15.5,,,,2,6.27
17,Polyamide,Homopolymer,Toluene,C7H8,,,,,,,,,<,298.15,,448.2,9.2,,,,2,6.42
17,Polyamide,Homopolymer,Toluene,C7H8,,,,,,,,,<,298.15,,473.2,5.8,,,,2,6.64
18,Polyarylate,Homopolymer,"Benzene, 1,2-dichloro",C6H4Cl2,,,,7000,,,,,,393.15,,413.2,,,4.96,C,94,
18,Polyarylate,Homopolymer,"Benzene, 1,2-dichloro",C6H4Cl2,,,,7000,,,,,,393.15,,443.2,,,4.18,C,94,
18,Polyarylate,Homopolymer,"Benzene, 1,2-dichloro",C6H4Cl2,,,,7000,,,,,,393.15,,473.2,,,3.7,C,94,
18,Polyarylate,Homopolymer,"Benzene, chloro",C6H5Cl,,,,7000,,,,,,393.15,,413.2,,,5.69,C,94,
18,Polyarylate,Homopolymer,"Benzene, chloro",C6H5Cl,,,,7000,,,,,,393.15,,443.2,,,5.06,C,94,
18,Polyarylate,Homopolymer,"Benzene, chloro",C6H5Cl,,,,7000,,,,,,393.15,,473.2,,,4.68,C,94,
18,Polyarylate,Homopolymer,"Benzene, 1,4-dimethyl",C8H10,,,,7000,,,,,,393.15,,413.2,,,9.92,C,94,
18,Polyarylate,Homopolymer,"Benzene, 1,4-dimethyl",C8H10,,,,7000,,,,,,393.15,,443.2,,,7.85,C,94,
18,Polyarylate,Homopolymer,"Benzene, 1,4-dimethyl",C8H10,,,,7000,,,,,,393.15,,473.2,,,6.58,C,94,
18,Polyarylate,Homopolymer,"Benzene, ethyl",C8H10,,,,7000,,,,,,393.15,,413.2,,,9.64,C,94,
18,Polyarylate,Homopolymer,"Benzene, ethyl",C8H10,,,,7000,,,,,,393.15,,443.2,,,8.11,C,94,
18,Polyarylate,Homopolymer,"Benzene, ethyl",C8H10,,,,7000,,,,,,393.15,,473.2,,,7.17,C,94,
18,Polyarylate,Homopolymer,"Diethyleneglycol, diethyl ether",C8H18O3,,,,7000,,,,,,393.15,,413.2,,,12,C,94,
18,Polyarylate,Homopolymer,"Diethyleneglycol, diethyl ether",C8H18O3,,,,7000,,,,,,393.15,,443.2,,,9.24,C,94,
18,Polyarylate,Homopolymer,"Diethyleneglycol, diethyl ether",C8H18O3,,,,7000,,,,,,393.15,,473.2,,,7.45,C,94,
18,Polyarylate,Homopolymer,Tetralin,C10H12,,,,7000,,,,,,393.15,,413.2,,,7.88,C,94,
18,Polyarylate,Homopolymer,Tetralin,C10H12,,,,7000,,,,,,393.15,,443.2,,,7.11,C,94,
18,Polyarylate,Homopolymer,Tetralin,C10H12,,,,7000,,,,,,393.15,,473.2,,,6.7,C,94,
19,Polyarylate,Homopolymer,Dodecane,C12H26,,,,7000,,,,,,393.15,,413.2,,,19.2,C,94,
19,Polyarylate,Homopolymer,Dodecane,C12H26,,,,7000,,,,,,393.15,,443.2,,,17.8,C,94,
19,Polyarylate,Homopolymer,Dodecane,C12H26,,,,7000,,,,,,393.15,,473.2,,,17.4,C,94,
20,Polybutadiene,Homopolymer,"Methane, tetrachloro",CCl4,,22600,,23956,,,,,,,,353,78.748,,,,99,1.76
20,Polybutadiene,Homopolymer,"Methane, tetrachloro",CCl4,,22600,,23956,,,,,,,,363,58.235,,,,99,1.81
20,Polybutadiene,Homopolymer,"Methane, tetrachloro",CCl4,,22600,,23956,,,,,,,,373,44.73,,,,99,1.82
20,Polybutadiene,Homopolymer,"Methane, trichloro",CHCl3,,22600,,23956,,,,,,,,353,57.664,,,,99,1.93
20,Polybutadiene,Homopolymer,"Methane, trichloro",CHCl3,,22600,,23956,,,,,,,,363,43.161,,,,99,1.98
20,Polybutadiene,Homopolymer,"Methane, trichloro",CHCl3,,22600,,23956,,,,,,,,373,33.362,,,,99,2
20,Polybutadiene,Homopolymer,"Methane, trichloro",CHCl3,,93000,,99000,,,,,,,,339.2,104.86,,,,45,1.59
20,Polybutadiene,Homopolymer,"Methane, trichloro",CHCl3,,93000,,99000,,,,,,,,349.2,76.6,,,,45,1.62
20,Polybutadiene,Homopolymer,"Methane, trichloro",CHCl3,,93000,,99000,,,,,,,,359.2,58.55,,,,45,1.61
20,Polybutadiene,Homopolymer,"Methane, trichloro",CHCl3,,93000,,99000,,,,,,,,369.2,42.17,,,,45,1.74
20,Polybutadiene,Homopolymer,"Methane, dichloro",CH2Cl2,,22600,,23956,,,,,,,,353,26.322,,,,99,3.11
20,Polybutadiene,Homopolymer,"Methane, dichloro",CH2Cl2,,22600,,23956,,,,,,,,363,20.41,,,,99,3.13
20,Polybutadiene,Homopolymer,"Methane, dichloro",CH2Cl2,,22600,,23956,,,,,,,,373,16.354,,,,99,3.1
20,Polybutadiene,Homopolymer,Methanol,CH4O,,22600,,23956,,,,,,,,353,23.552,,,,99,17.5
20,Polybutadiene,Homopolymer,Methanol,CH4O,,22600,,23956,,,,,,,,363,14.746,,,,99,20
20,Polybutadiene,Homopolymer,Methanol,CH4O,,22600,,23956,,,,,,,,373,10.656,,,,99,20.2
20,Polybutadiene,Homopolymer,Methanol,CH4O,,93000,,99000,,,,,,,,339.2,8.89,,,,45,76.9
20,Polybutadiene,Homopolymer,Methanol,CH4O,,93000,,99000,,,,,,,,349.2,7.34,,,,45,64.3
20,Polybutadiene,Homopolymer,Methanol,CH4O,,93000,,99000,,,,,,,,359.2,5.99,,,,45,55.9
20,Polybutadiene,Homopolymer,Methanol,CH4O,,93000,,99000,,,,,,,,369.2,4.94,,,,45,49.1
20,Polybutadiene,Homopolymer,"Acetic acid, nitrile",C2H3N,,22600,,23956,,,,,,,,353,26.731,,,,99,23.5
21,Polybutadiene,Homopolymer,"Acetic acid, nitrile",C2H3N,,22600,,23956,,,,,,,,363,20.347,,,,99,23
21,Polybutadiene,Homopolymer,"Acetic acid, nitrile",C2H3N,,22600,,23956,,,,,,,,373,14.971,,,,99,23.8
21,Polybutadiene,Homopolymer,"Ethane, 1,2-dichloro",C2H4Cl2,,22600,,23956,,,,,,,,353,71.96,,,,99,3.65
21,Polybutadiene,Homopolymer,"Ethane, 1,2-dichloro",C2H4Cl2,,22600,,23956,,,,,,,,363,53.554,,,,99,3.62
21,Polybutadiene,Homopolymer,"Ethane, 1,2-dichloro",C2H4Cl2,,22600,,23956,,,,,,,,373,41.002,,,,99,3.56
21,Polybutadiene,Homopolymer,"Ethane, 1,2-dichloro",C2H4Cl2,,93000,,99000,,,,,,,,339.2,128.29,,,,45,3.23
21,Polybutadiene,Homopolymer,"Ethane, 1,2-dichloro",C2H4Cl2,,93000,,99000,,,,,,,,349.2,94.37,,,,45,3.14
21,Polybutadiene,Homopolymer,"Ethane, 1,2-dichloro",C2H4Cl2,,93000,,99000,,,,,,,,359.2,67.79,,,,45,3.2
21,Polybutadiene,Homopolymer,"Ethane, 1,2-dichloro",C2H4Cl2,,93000,,99000,,,,,,,,369.2,51.11,,,,45,3.17
21,Polybutadiene,Homopolymer,2-Propanone,C3H6O,,22600,,23956,,,,,,,,353,18.706,,,,99,10.6
21,Polybutadiene,Homopolymer,2-Propanone,C3H6O,,22600,,23956,,,,,,,,363,14.111,,,,99,10.7
21,Polybutadiene,Homopolymer,2-Propanone,C3H6O,,22600,,23956,,,,,,,,373,11.28,,,,99,10.4
21,Polybutadiene,Homopolymer,2-Propanone,C3H6O,,93000,,99000,,,,,,,,339.2,25.54,,,,45,11.6
21,Polybutadiene,Homopolymer,2-Propanone,C3H6O,,93000,,99000,,,,,,,,349.2,19.5,,,,45,11.3
21,Polybutadiene,Homopolymer,2-Propanone,C3H6O,,93000,,99000,,,,,,,,359.2,15.53,,,,45,10.8
21,Polybutadiene,Homopolymer,2-Propanone,C3H6O,,93000,,99000,,,,,,,,369.2,12.21,,,,45,10.6
21,Polybutadiene,Homopolymer,"Formic acid, ethyl ester",C3H6O2,,93000,,99000,,,,,,,,339.2,33.08,,,,45,6.57
21,Polybutadiene,Homopolymer,"Formic acid, ethyl ester",C3H6O2,,93000,,99000,,,,,,,,349.2,26.49,,,,45,6.11
21,Polybutadiene,Homopolymer,"Formic acid, ethyl ester",C3H6O2,,93000,,99000,,,,,,,,359.2,19.67,,,,45,6.25
21,Polybutadiene,Homopolymer,"Formic acid, ethyl ester",C3H6O2,,93000,,99000,,,,,,,,369.2,15.34,,,,45,6.2
22,Polybutadiene,Homopolymer,"Formic acid, amide, N,N-dimethyl",C3H7NO,,22600,,23956,,,,,,,,353,198.005,,,,99,16.5
22,Polybutadiene,Homopolymer,"Formic acid, amide, N,N-dimethyl",C3H7NO,,22600,,23956,,,,,,,,363,140.793,,,,99,15.6
22,Polybutadiene,Homopolymer,"Formic acid, amide, N,N-dimethyl",C3H7NO,,22600,,23956,,,,,,,,373,100.327,,,,99,15.1
22,Polybutadiene,Homopolymer,1-Propanol,C3H8O,,93000,,99000,,,,,,,,339.2,44.27,,,,45,32.5
22,Polybutadiene,Homopolymer,1-Propanol,C3H8O,,93000,,99000,,,,,,,,349.2,34.24,,,,45,26.8
22,Polybutadiene,Homopolymer,1-Propanol,C3H8O,,93000,,99000,,,,,,,,359.2,25.72,,,,45,23.5
22,Polybutadiene,Homopolymer,1-Propanol,C3H8O,,93000,,99000,,,,,,,,369.2,19.74,,,,45,20.8
22,Polybutadiene,Homopolymer,2-Propanol,C3H8O,,22600,,23956,,,,,,,,353,17.508,,,,99,24.5
22,Polybutadiene,Homopolymer,2-Propanol,C3H8O,,22600,,23956,,,,,,,,363,13.265,,,,99,22.2
22,Polybutadiene,Homopolymer,2-Propanol,C3H8O,,22600,,23956,,,,,,,,373,14.76,,,,99,14.1
22,Polybutadiene,Homopolymer,2-Butanone,C4H8O,,22600,,23956,,,,,,,,353,37.412,,,,99,8.59
22,Polybutadiene,Homopolymer,2-Butanone,C4H8O,,22600,,23956,,,,,,,,363,28.222,,,,99,8.46
22,Polybutadiene,Homopolymer,2-Butanone,C4H8O,,22600,,23956,,,,,,,,373,21.833,,,,99,8.3
22,Polybutadiene,Homopolymer,2-Butanone,C4H8O,,93000,,99000,,,,,,,,339.2,64.52,,,,45,7.8
22,Polybutadiene,Homopolymer,2-Butanone,C4H8O,,93000,,99000,,,,,,,,349.2,48.79,,,,45,7.43
22,Polybutadiene,Homopolymer,2-Butanone,C4H8O,,93000,,99000,,,,,,,,359.2,35.93,,,,45,7.43
22,Polybutadiene,Homopolymer,2-Butanone,C4H8O,,93000,,99000,,,,,,,,369.2,26.23,,,,45,7.66
22,Polybutadiene,Homopolymer,"Furane, tetrahydro",C4H8O,,22600,,23956,,,,,,,,353,57.786,,,,99,3.65
22,Polybutadiene,Homopolymer,"Furane, tetrahydro",C4H8O,,22600,,23956,,,,,,,,363,43.231,,,,99,3.7
22,Polybutadiene,Homopolymer,"Furane, tetrahydro",C4H8O,,22600,,23956,,,,,,,,373,32.905,,,,99,3.76
22,Polybutadiene,Homopolymer,"Furane, tetrahydro",C4H8O,,93000,,99000,,,,,,,,339.2,101.27,,,,45,3.17
23,Polybutadiene,Homopolymer,"Furane, tetrahydro",C4H8O,,93000,,99000,,,,,,,,349.2,76.54,,,,45,3.08
23,Polybutadiene,Homopolymer,"Furane, tetrahydro",C4H8O,,93000,,99000,,,,,,,,359.2,55.65,,,,45,3.19
23,Polybutadiene,Homopolymer,"Furane, tetrahydro",C4H8O,,93000,,99000,,,,,,,,369.2,40.18,,,,45,3.39
23,Polybutadiene,Homopolymer,"Acetic acid, ethyl ester",C4H8O2,,22600,,23956,,,,,,,,353,40.799,,,,99,6.02
23,Polybutadiene,Homopolymer,"Acetic acid, ethyl ester",C4H8O2,,22600,,23956,,,,,,,,363,30.072,,,,99,6.04
23,Polybutadiene,Homopolymer,"Acetic acid, ethyl ester",C4H8O2,,22600,,23956,,,,,,,,373,22.872,,,,99,6
23,Polybutadiene,Homopolymer,"1,4-Dioxane",C4H8O2,,93000,,99000,,,,,,,,339.2,195.08,,,,45,4.44
23,Polybutadiene,Homopolymer,"1,4-Dioxane",C4H8O2,,93000,,99000,,,,,,,,349.2,140.79,,,,45,4.29
23,Polybutadiene,Homopolymer,"1,4-Dioxane",C4H8O2,,93000,,99000,,,,,,,,359.2,99.05,,,,45,4.36
23,Polybutadiene,Homopolymer,"1,4-Dioxane",C4H8O2,,93000,,99000,,,,,,,,369.2,72.76,,,,45,4.34
23,Polybutadiene,Homopolymer,1-Butanol,C4H10O,,22600,,23956,,,,,,,,353,70.344,,,,99,20.5
23,Polybutadiene,Homopolymer,1-Butanol,C4H10O,,22600,,23956,,,,,,,,363,50.26,,,,99,18.4
23,Polybutadiene,Homopolymer,1-Butanol,C4H10O,,22600,,23956,,,,,,,,373,37.739,,,,99,16.3
23,Polybutadiene,Homopolymer,Pentane,C5H12,,93000,,99000,,,,,,,,339.2,28.41,,,,45,4.74
23,Polybutadiene,Homopolymer,Pentane,C5H12,,93000,,99000,,,,,,,,349.2,21.75,,,,45,4.82
23,Polybutadiene,Homopolymer,Pentane,C5H12,,93000,,99000,,,,,,,,359.2,16.16,,,,45,5.15
23,Polybutadiene,Homopolymer,Pentane,C5H12,,93000,,99000,,,,,,,,369.2,12.2,,,,45,5.51
23,Polybutadiene,Homopolymer,Benzene,C6H6,,22600,,23956,,,,,,,,353,82.203,,,,99,3.65
23,Polybutadiene,Homopolymer,Benzene,C6H6,,22600,,23956,,,,,,,,363,60.716,,,,99,3.69
24,Polybutadiene,Homopolymer,Benzene,C6H6,,22600,,23956,,,,,,,,373,46.548,,,,99,3.68
24,Polybutadiene,Homopolymer,Benzene,C6H6,,93000,,99000,,,,,,,,339.2,149.33,,,,45,3.11
24,Polybutadiene,Homopolymer,Benzene,C6H6,,93000,,99000,,,,,,,,349.2,109.52,,,,45,3.08
24,Polybutadiene,Homopolymer,Benzene,C6H6,,93000,,99000,,,,,,,,359.2,78.28,,,,45,3.2
24,Polybutadiene,Homopolymer,Benzene,C6H6,,93000,,99000,,,,,,,,369.2,58.86,,,,45,3.22
24,Polybutadiene,Homopolymer,Aniline,C6H7N,,22600,,23956,,,,,,,,353,1154.706,,,,99,9.12
24,Polybutadiene,Homopolymer,Aniline,C6H7N,,22600,,23956,,,,,,,,363,761.309,,,,99,8.45
24,Polybutadiene,Homopolymer,Aniline,C6H7N,,22600,,23956,,,,,,,,373,521.905,,,,99,7.83
24,Polybutadiene,Homopolymer,Cyclohexanone,C6H10O,,22600,,23956,,,,,,,,353,467.857,,,,99,5.68
24,Polybutadiene,Homopolymer,Cyclohexanone,C6H10O,,22600,,23956,,,,,,,,363,325.135,,,,99,5.53
24,Polybutadiene,Homopolymer,Cyclohexanone,C6H10O,,22600,,23956,,,,,,,,373,230.491,,,,99,5.42
24,Polybutadiene,Homopolymer,Cyclohexane,C6H12,,22600,,23956,,,,,,,,353,68.404,,,,99,4.15
24,Polybutadiene,Homopolymer,Cyclohexane,C6H12,,22600,,23956,,,,,,,,363,51.494,,,,99,4.16
24,Polybutadiene,Homopolymer,Cyclohexane,C6H12,,22600,,23956,,,,,,,,373,39.326,,,,99,4.18
24,Polybutadiene,Homopolymer,Cyclohexane,C6H12,,93000,,99000,,,,,,,,339.2,123.86,,,,45,3.51
24,Polybutadiene,Homopolymer,Cyclohexane,C6H12,,93000,,99000,,,,,,,,349.2,94.37,,,,45,3.37
24,Polybutadiene,Homopolymer,Cyclohexane,C6H12,,93000,,99000,,,,,,,,359.2,68.77,,,,45,3.46
24,Polybutadiene,Homopolymer,Cyclohexane,C6H12,,93000,,99000,,,,,,,,369.2,49.45,,,,45,3.67
24,Polybutadiene,Homopolymer,"2-Pentanone, 4-methyl",C6H12O,,22600,,23956,,,,,,,,353,107.288,,,,99,6.87
24,Polybutadiene,Homopolymer,"2-Pentanone, 4-methyl",C6H12O,,22600,,23956,,,,,,,,363,76.014,,,,99,6.89
24,Polybutadiene,Homopolymer,"2-Pentanone, 4-methyl",C6H12O,,22600,,23956,,,,,,,,373,56.099,,,,99,6.79
25,Polybutadiene,Homopolymer,Hexane,C6H14,,22600,,23956,,,,,,,,353,31.69,,,,99,6.31
25,Polybutadiene,Homopolymer,Hexane,C6H14,,22600,,23956,,,,,,,,363,23.968,,,,99,6.4
25,Polybutadiene,Homopolymer,Hexane,C6H14,,22600,,23956,,,,,,,,373,18.731,,,,99,6.4
25,Polybutadiene,Homopolymer,Benzaldehyde,C7H6O,,22600,,23956,,,,,,,,353,929.486,,,,99,6.87
25,Polybutadiene,Homopolymer,Benzaldehyde,C7H6O,,22600,,23956,,,,,,,,363,622.26,,,,99,6.58
25,Polybutadiene,Homopolymer,Benzaldehyde,C7H6O,,22600,,23956,,,,,,,,373,428.077,,,,99,6.32
25,Polybutadiene,Homopolymer,Toluene,C7H8,,22600,,23956,,,,,,,,353,192.021,,,,99,3.4
25,Polybutadiene,Homopolymer,Toluene,C7H8,,22600,,23956,,,,,,,,363,137.208,,,,99,3.42
25,Polybutadiene,Homopolymer,Toluene,C7H8,,22600,,23956,,,,,,,,373,100.317,,,,99,3.44
25,Polybutadiene,Homopolymer,Toluene,C7H8,,93000,,99000,,,,,,,,339.2,376.02,,,,45,2.85
25,Polybutadiene,Homopolymer,Toluene,C7H8,,93000,,99000,,,,,,,,349.2,269.49,,,,45,2.77
25,Polybutadiene,Homopolymer,Toluene,C7H8,,93000,,99000,,,,,,,,359.2,182.36,,,,45,2.91
25,Polybutadiene,Homopolymer,Toluene,C7H8,,93000,,99000,,,,,,,,369.2,127.82,,,,45,3.03
25,Polybutadiene,Homopolymer,Benzyl alcohol,C7H8O,,22600,,23956,,,,,,,,353,1907.426,,,,99,17.1
25,Polybutadiene,Homopolymer,Benzyl alcohol,C7H8O,,22600,,23956,,,,,,,,363,1220.79,,,,99,15
25,Polybutadiene,Homopolymer,Benzyl alcohol,C7H8O,,22600,,23956,,,,,,,,373,811.085,,,,99,13.2
25,Polybutadiene,Homopolymer,Heptane,C7H16,,93000,,99000,,,,,,,,339.2,168.39,,,,45,3.95
25,Polybutadiene,Homopolymer,Heptane,C7H16,,93000,,99000,,,,,,,,349.2,120.83,,,,45,3.9
25,Polybutadiene,Homopolymer,Heptane,C7H16,,93000,,99000,,,,,,,,359.2,79.99,,,,45,4.28
25,Polybutadiene,Homopolymer,Heptane,C7H16,,93000,,99000,,,,,,,,369.2,55.17,,,,45,4.61
26,Polybutadiene,Homopolymer,"Benzene, 1,4-dimethyl",C8H10,,22600,,23956,,,,,,,,353,442.607,,,,99,3.16
26,Polybutadiene,Homopolymer,"Benzene, 1,4-dimethyl",C8H10,,22600,,23956,,,,,,,,363,305.64,,,,99,3.17
26,Polybutadiene,Homopolymer,"Benzene, 1,4-dimethyl",C8H10,,22600,,23956,,,,,,,,373,213.773,,,,99,3.22
26,Polybutadiene,Homopolymer,"Benzene, ethyl",C8H10,,22600,,23956,,,,,,,,353,386.38,,,,99,3.36
26,Polybutadiene,Homopolymer,"Benzene, ethyl",C8H10,,22600,,23956,,,,,,,,363,269.501,,,,99,3.34
26,Polybutadiene,Homopolymer,"Benzene, ethyl",C8H10,,22600,,23956,,,,,,,,373,189.918,,,,99,3.37
26,Polybutadiene,Homopolymer,"Benzene, butyl",C10H14,,22600,,23956,,,,,,,,353,1697.06,,,,99,3.21
26,Polybutadiene,Homopolymer,"Benzene, butyl",C10H14,,22600,,23956,,,,,,,,363,1068.972,,,,99,3.26
26,Polybutadiene,Homopolymer,"Benzene, butyl",C10H14,,22600,,23956,,,,,,,,373,701.52,,,,99,3.28
27,"1,4-Polybutadiene",Homopolymer,"Methane, tetrachloro",CCl4,,,,,,,,,,,1,338.2,,0.063,,C,50,
27,"1,4-Polybutadiene",Homopolymer,"Methane, tetrachloro",CCl4,,,,,,,,,,,1,348.2,,0.065,,C,50,
27,"1,4-Polybutadiene",Homopolymer,"Methane, tetrachloro",CCl4,,,,,,,,,,,1,358.2,,0.067,,C,50,