Page,Solute,Solute_type,Solvent,Solvent_formula,MN_symbol,MN,MW_symbol,MW,MV_symbol,MV,per composition,per substitution,Tg_symbol,Tg (K),Note,T (K),Vg (cm3/g),chi_inf,omega_inf,U/C,Ref,calc_omega_inf
61,Poly(dimethylsiloxane),Homopolymer,Heptane,C7H16,,15100,,28700,,,,,,,,313.2,307.5,,,,41,6.06
61,Poly(dimethylsiloxane),Homopolymer,Heptane,C7H16,,15100,,28700,,,,,,,,323.2,202.3,,,,41,6.04
61,Poly(dimethylsiloxane),Homopolymer,Heptane,C7H16,,15100,,28700,,,,,,,,333.2,137,,,,41,6.04
61,Poly(dimethylsiloxane),Homopolymer,Heptane,C7H16,,15100,,28700,,,,,,,,343.2,96.3,,,,41,6
61,Poly(dimethylsiloxane),Homopolymer,Heptane,C7H16,,15100,,28700,,,,,,,,353.2,69.1,,,,41,5.98
61,Poly(dimethylsiloxane),Homopolymer,Heptane,C7H16,,17000,,20400,,,,,,,,333.2,140.4,,,,12,5.9
61,Poly(dimethylsiloxane),Homopolymer,Heptane,C7H16,,20700,,95300,,,,,,,,303.2,,,5.927,C,41,
61,Poly(dimethylsiloxane),Homopolymer,Heptane,C7H16,,20700,,95300,,,,,,,,313.2,309.7,,,,41,6.02
61,Poly(dimethylsiloxane),Homopolymer,Heptane,C7H16,,20700,,95300,,,,,,,,323.2,204,,,,41,5.99
61,Poly(dimethylsiloxane),Homopolymer,Heptane,C7H16,,20700,,95300,,,,,,,,333.2,138.8,,,,41,5.97
61,Poly(dimethylsiloxane),Homopolymer,Heptane,C7H16,,20700,,95300,,,,,,,,343.2,97,,,,41,5.95
62,Poly(dimethylsiloxane),Homopolymer,Heptane,C7H16,,20700,,95300,,,,,,,,353.2,69.6,,,,41,5.94
62,Poly(dimethylsiloxane),Homopolymer,Heptane,C7H16,,30000,,90000,,,,,,,,328.2,167.9,,,,12,5.97
62,Poly(dimethylsiloxane),Homopolymer,Heptane,C7H16,,30000,,90000,,,,,,,,333.2,138.1,,,,12,6
62,Poly(dimethylsiloxane),Homopolymer,Heptane,C7H16,,30000,,90000,,,,,,,,353.2,68.5,,,,12,6.04
62,Poly(dimethylsiloxane),Homopolymer,Heptane,C7H16,,30000,,90000,,,,,,,,373.2,37,,,,12,6.14
62,Poly(dimethylsiloxane),Homopolymer,Heptane,C7H16,,30000,,90000,,,,,,,,393.2,21.6,,,,12,6.25
62,Poly(dimethylsiloxane),Homopolymer,Heptane,C7H16,,30000,,90000,,,,,,,,413.2,13.5,,,,12,6.34
62,Poly(dimethylsiloxane),Homopolymer,Heptane,C7H16,,30000,,90000,,,,,,,,433.2,8.9,,,,12,6.45
62,Poly(dimethylsiloxane),Homopolymer,Heptane,C7H16,,30000,,90000,,,,,,,,453.2,6.2,,,,12,6.51
62,Poly(dimethylsiloxane),Homopolymer,Heptane,C7H16,,30000,,,,,,,,,5,298.2,604.7,,,,63,6.22
62,Poly(dimethylsiloxane),Homopolymer,Heptane,C7H16,,89000,,,,,,,,,6,303,,,6.135,C,13,
62,Poly(dimethylsiloxane),Homopolymer,Heptane,C7H16,,208000,,580000,,,,,,,,303.2,,,5.92,C,41,
62,Poly(dimethylsiloxane),Homopolymer,Heptane,C7H16,,,,,,30000,,,,,,293.2,,0.5,,C,51,
62,Poly(dimethylsiloxane),Homopolymer,Heptane,C7H16,,,,,,500000,,,,,,298.2,587.6,,,,16,6.4
62,Poly(dimethylsiloxane),Homopolymer,Heptane,C7H16,,,,,,500000,,,,,,298.2,,,5.94,C,36,
62,Poly(dimethylsiloxane),Homopolymer,Heptane,C7H16,,,,,,500000,,,,,,313.2,290.8,,,,16,6.41
62,Poly(dimethylsiloxane),Homopolymer,Heptane,C7H16,,,,,,500000,,,,,,313.2,,,5.86,C,36,
62,Poly(dimethylsiloxane),Homopolymer,Heptane,C7H16,,,,,,500000,,,,,,328.2,157.8,,,,16,6.35
62,Poly(dimethylsiloxane),Homopolymer,Heptane,C7H16,,,,,,500000,,,,,,328.2,,,5.9,C,36,
62,Poly(dimethylsiloxane),Homopolymer,Heptane,C7H16,,,,,,500000,,,,,,343.2,89.54,,,,16,6.45
62,Poly(dimethylsiloxane),Homopolymer,Heptane,C7H16,,,,,,500000,,,,,,343.2,,,5.96,C,36,
62,Poly(dimethylsiloxane),Homopolymer,Heptane,C7H16,,,,,,600000,,,,,,328.2,169.5,,,,26,5.91
62,Poly(dimethylsiloxane),Homopolymer,Heptane,C7H16,,,,,,600000,,,,,,343.2,96.6,,,,26,5.98
62,Poly(dimethylsiloxane),Homopolymer,"Hexane, 2-methyl",C7H16,,3700,,,,,,,,,,333.2,107.76,,,,24,5.71
62,Poly(dimethylsiloxane),Homopolymer,"Hexane, 2-methyl",C7H16,,,,,,500000,,,,,,298.2,420.9,,,,16,6.18
62,Poly(dimethylsiloxane),Homopolymer,"Hexane, 2-methyl",C7H16,,,,,,500000,,,,,,298.2,,,5.79,C,36,
62,Poly(dimethylsiloxane),Homopolymer,"Hexane, 2-methyl",C7H16,,,,,,500000,,,,,,313.2,211.4,,,,16,6.31
63,Poly(dimethylsiloxane),Homopolymer,"Hexane, 2-methyl",C7H16,,,,,,500000,,,,,,313.2,,,5.71,C,36,
63,Poly(dimethylsiloxane),Homopolymer,"Hexane, 2-methyl",C7H16,,,,,,500000,,,,,,328.2,119.6,,,,16,6.17
63,Poly(dimethylsiloxane),Homopolymer,"Hexane, 2-methyl",C7H16,,,,,,500000,,,,,,328.2,,,5.8,C,36,
63,Poly(dimethylsiloxane),Homopolymer,"Hexane, 2-methyl",C7H16,,,,,,500000,,,,,,343.2,70.04,,,,16,6.23
63,Poly(dimethylsiloxane),Homopolymer,"Hexane, 2-methyl",C7H16,,,,,,500000,,,,,,343.2,,,5.87,C,36,
63,Poly(dimethylsiloxane),Homopolymer,"Hexane, 3-methyl",C7H16,,,,,,500000,,,,,,298.2,,,5.68,C,36,
63,Poly(dimethylsiloxane),Homopolymer,"Hexane, 3-methyl",C7H16,,,,,,500000,,,,,,313.2,,,5.63,C,36,
63,Poly(dimethylsiloxane),Homopolymer,"Hexane, 3-methyl",C7H16,,,,,,500000,,,,,,328.2,,,5.68,C,36,
63,Poly(dimethylsiloxane),Homopolymer,"Hexane, 3-methyl",C7H16,,,,,,500000,,,,,,343.2,,,5.7,C,36,
63,Poly(dimethylsiloxane),Homopolymer,"Pentane, 2,4-dimethyl",C7H16,,3700,,,,,,,,,,333.2,78.97,,,,24,5.67
63,Poly(dimethylsiloxane),Homopolymer,"Benzene, 1,2-dimethyl",C8H10,,,,,,500000,,,,,,298.2,,,7.06,C,36,
63,Poly(dimethylsiloxane),Homopolymer,"Benzene, 1,2-dimethyl",C8H10,,,,,,500000,,,,,,313.2,,,6.78,C,36,
63,Poly(dimethylsiloxane),Homopolymer,"Benzene, 1,2-dimethyl",C8H10,,,,,,500000,,,,,,328.2,,,6.59,C,36,
63,Poly(dimethylsiloxane),Homopolymer,"Benzene, 1,2-dimethyl",C8H10,,,,,,500000,,,,,,343.2,,,6.58,C,36,
63,Poly(dimethylsiloxane),Homopolymer,"Benzene, 1,3-dimethyl",C8H10,,,,,,500000,,,,,,298.2,,,6.86,C,36,
63,Poly(dimethylsiloxane),Homopolymer,"Benzene, 1,3-dimethyl",C8H10,,,,,,500000,,,,,,313.2,,,6.61,C,36,
63,Poly(dimethylsiloxane),Homopolymer,"Benzene, 1,3-dimethyl",C8H10,,,,,,500000,,,,,,328.2,,,6.58,C,36,
63,Poly(dimethylsiloxane),Homopolymer,"Benzene, 1,3-dimethyl",C8H10,,,,,,500000,,,,,,343.2,,,6.46,C,36,
63,Poly(dimethylsiloxane),Homopolymer,"Benzene, 1,4-dimethyl",C8H10,,,,,,500000,,,,,,298.2,2654.6,,,,16,
64,Poly(dimethylsiloxane),Homopolymer,"Benzene, 1,4-dimethyl",C8H10,,,,,,500000,,,,,,298.2,,,6.42,C,36,
64,Poly(dimethylsiloxane),Homopolymer,"Benzene, 1,4-dimethyl",C8H10,,,,,,500000,,,,,,313.2,1187.5,,,,16,
64,Poly(dimethylsiloxane),Homopolymer,"Benzene, 1,4-dimethyl",C8H10,,,,,,500000,,,,,,313.2,,,6.29,C,36,
64,Poly(dimethylsiloxane),Homopolymer,"Benzene, 1,4-dimethyl",C8H10,,,,,,500000,,,,,,328.2,586.5,,,,16,
64,Poly(dimethylsiloxane),Homopolymer,"Benzene, 1,4-dimethyl",C8H10,,,,,,500000,,,,,,328.2,,,6.24,C,36,
64,Poly(dimethylsiloxane),Homopolymer,"Benzene, 1,4-dimethyl",C8H10,,,,,,500000,,,,,,343.2,307.4,,,,16,6.71
64,Poly(dimethylsiloxane),Homopolymer,"Benzene, 1,4-dimethyl",C8H10,,,,,,500000,,,,,,343.2,,,6.22,C,36,
64,Poly(dimethylsiloxane),Homopolymer,"Benzene, ethyl",C8H10,,30000,,90000,,,,,,,,333.2,446.1,,,,12,6.52
64,Poly(dimethylsiloxane),Homopolymer,"Benzene, ethyl",C8H10,,30000,,90000,,,,,,,,353.2,201.1,,,,12,6.42
64,Poly(dimethylsiloxane),Homopolymer,"Benzene, ethyl",C8H10,,30000,,90000,,,,,,,,373.2,100.6,,,,12,6.34
64,Poly(dimethylsiloxane),Homopolymer,"Benzene, ethyl",C8H10,,30000,,90000,,,,,,,,393.2,54.9,,,,12,6.27
64,Poly(dimethylsiloxane),Homopolymer,"Benzene, ethyl",C8H10,,30000,,90000,,,,,,,,413.2,32.3,,,,12,6.2
64,Poly(dimethylsiloxane),Homopolymer,"Benzene, ethyl",C8H10,,30000,,90000,,,,,,,,433.2,20.2,,,,12,6.15
64,Poly(dimethylsiloxane),Homopolymer,"Benzene, ethyl",C8H10,,30000,,90000,,,,,,,,453.2,13.3,,,,12,6.12
64,Poly(dimethylsiloxane),Homopolymer,"Benzene, ethyl",C8H10,,,,,,500000,,,,,,298.2,2365.7,,,,16,
64,Poly(dimethylsiloxane),Homopolymer,"Benzene, ethyl",C8H10,,,,,,500000,,,,,,298.2,,,6.49,C,36,
64,Poly(dimethylsiloxane),Homopolymer,"Benzene, ethyl",C8H10,,,,,,500000,,,,,,313.2,1090.5,,,,16,6.83
64,Poly(dimethylsiloxane),Homopolymer,"Benzene, ethyl",C8H10,,,,,,500000,,,,,,313.2,,,6.33,C,36,
64,Poly(dimethylsiloxane),Homopolymer,"Benzene, ethyl",C8H10,,,,,,500000,,,,,,328.2,541.2,,,,16,6.71
64,Poly(dimethylsiloxane),Homopolymer,"Benzene, ethyl",C8H10,,,,,,500000,,,,,,328.2,,,6.18,C,36,
64,Poly(dimethylsiloxane),Homopolymer,"Benzene, ethyl",C8H10,,,,,,500000,,,,,,343.2,286.4,,,,16,6.67
64,Poly(dimethylsiloxane),Homopolymer,"Benzene, ethyl",C8H10,,,,,,500000,,,,,,343.2,,,6.19,C,36,
64,Poly(dimethylsiloxane),Homopolymer,Cyclooctane,C8H16,,,,,,500000,,,,,,298.2,,,6.04,C,36,
64,Poly(dimethylsiloxane),Homopolymer,Cyclooctane,C8H16,,,,,,500000,,,,,,313.2,,,5.78,C,36,
64,Poly(dimethylsiloxane),Homopolymer,Cyclooctane,C8H16,,,,,,500000,,,,,,328.2,,,5.69,C,36,
65,Poly(dimethylsiloxane),Homopolymer,Cyclooctane,C8H16,,,,,,500000,,,,,,343.2,,,5.73,C,36,
65,Poly(dimethylsiloxane),Homopolymer,"Heptane, 2-methyl",C8H18,,,,,,500000,,,,,,298.2,1138,,,,16,6.37
65,Poly(dimethylsiloxane),Homopolymer,"Heptane, 2-methyl",C8H18,,,,,,500000,,,,,,298.2,,,5.94,C,36,
65,Poly(dimethylsiloxane),Homopolymer,"Heptane, 2-methyl",C8H18,,,,,,500000,,,,,,313.2,534.7,,,,16,6.36
65,Poly(dimethylsiloxane),Homopolymer,"Heptane, 2-methyl",C8H18,,,,,,500000,,,,,,313.2,,,5.82,C,36,
65,Poly(dimethylsiloxane),Homopolymer,"Heptane, 2-methyl",C8H18,,,,,,500000,,,,,,328.2,275.8,,,,16,6.29
65,Poly(dimethylsiloxane),Homopolymer,"Heptane, 2-methyl",C8H18,,,,,,500000,,,,,,328.2,,,5.86,C,36,
65,Poly(dimethylsiloxane),Homopolymer,"Heptane, 2-methyl",C8H18,,,,,,500000,,,,,,343.2,150.1,,,,16,6.34
65,Poly(dimethylsiloxane),Homopolymer,"Heptane, 2-methyl",C8H18,,,,,,500000,,,,,,343.2,,,5.88,C,36,
65,Poly(dimethylsiloxane),Homopolymer,Octane,C8H18,,3700,,,,,,,,,,333.2,332.14,,,,24,5.84
65,Poly(dimethylsiloxane),Homopolymer,Octane,C8H18,,15100,,28700,,,,,,,,313.2,771.2,,,,41,6.3
65,Poly(dimethylsiloxane),Homopolymer,Octane,C8H18,,15100,,28700,,,,,,,,323.2,481.7,,,,41,6.26
65,Poly(dimethylsiloxane),Homopolymer,Octane,C8H18,,15100,,28700,,,,,,,,333.2,310.6,,,,41,6.25
65,Poly(dimethylsiloxane),Homopolymer,Octane,C8H18,,15100,,28700,,,,,,,,343.2,208.9,,,,41,6.16
65,Poly(dimethylsiloxane),Homopolymer,Octane,C8H18,,15100,,28700,,,,,,,,353.2,143.8,,,,41,6.11
65,Poly(dimethylsiloxane),Homopolymer,Octane,C8H18,,20700,,95300,,,,,,,,303.2,,,6.169,C,41,
65,Poly(dimethylsiloxane),Homopolymer,Octane,C8H18,,20700,,95300,,,,,,,,313.2,776.6,,,,41,6.25
65,Poly(dimethylsiloxane),Homopolymer,Octane,C8H18,,20700,,95300,,,,,,,,323.2,484.2,,,,41,6.23
65,Poly(dimethylsiloxane),Homopolymer,Octane,C8H18,,20700,,95300,,,,,,,,333.2,314.5,,,,41,6.17
65,Poly(dimethylsiloxane),Homopolymer,Octane,C8H18,,20700,,95300,,,,,,,,343.2,210.4,,,,41,6.12
65,Poly(dimethylsiloxane),Homopolymer,Octane,C8H18,,20700,,95300,,,,,,,,353.2,145,,,,41,6.06
65,Poly(dimethylsiloxane),Homopolymer,Octane,C8H18,,30000,,,,,,,,,5,298.2,1633.5,,,,63,6.52
65,Poly(dimethylsiloxane),Homopolymer,Octane,C8H18,,89000,,,,,,,,,6,303,,,6.342,C,13,
65,Poly(dimethylsiloxane),Homopolymer,Octane,C8H18,,208000,,580000,,,,,,,,303.2,,,6.14,C,41,
65,Poly(dimethylsiloxane),Homopolymer,Octane,C8H18,,,,,,30000,,,,,,293.2,,0.53,,C,51,
66,Poly(dimethylsiloxane),Homopolymer,Octane,C8H18,,,,,,500000,,,,,,298.2,1626.6,,,,16,6.55
66,Poly(dimethylsiloxane),Homopolymer,Octane,C8H18,,,,,,500000,,,,,,298.2,,,6.11,C,36,
66,Poly(dimethylsiloxane),Homopolymer,Octane,C8H18,,,,,,500000,,,,,,313.2,740.9,,,,16,6.55
66,Poly(dimethylsiloxane),Homopolymer,Octane,C8H18,,,,,,500000,,,,,,313.2,,,6,C,36,
66,Poly(dimethylsiloxane),Homopolymer,Octane,C8H18,,,,,,500000,,,,,,328.2,367.1,,,,16,6.56
66,Poly(dimethylsiloxane),Homopolymer,Octane,C8H18,,,,,,500000,,,,,,328.2,,,5.98,C,36,
66,Poly(dimethylsiloxane),Homopolymer,Octane,C8H18,,,,,,500000,,,,,,343.2,194.9,,,,16,6.6
66,Poly(dimethylsiloxane),Homopolymer,Octane,C8H18,,,,,,500000,,,,,,343.2,,,6.05,C,36,
66,Poly(dimethylsiloxane),Homopolymer,"Pentane, 2,2,4-trimethyl",C8H18,,,,,,30000,,,,,,293.2,,0.43,,C,51,
66,Poly(dimethylsiloxane),Homopolymer,"Pentane, 2,2,4-trimethyl",C8H18,,,,,,500000,,,,,,298.2,510.2,,,,16,5.98
66,Poly(dimethylsiloxane),Homopolymer,"Pentane, 2,2,4-trimethyl",C8H18,,,,,,500000,,,,,,298.2,,,5.51,C,36,
66,Poly(dimethylsiloxane),Homopolymer,"Pentane, 2,2,4-trimethyl",C8H18,,,,,,500000,,,,,,313.2,260.9,,,,16,5.96
66,Poly(dimethylsiloxane),Homopolymer,"Pentane, 2,2,4-trimethyl",C8H18,,,,,,500000,,,,,,313.2,,,5.43,C,36,
66,Poly(dimethylsiloxane),Homopolymer,"Pentane, 2,2,4-trimethyl",C8H18,,,,,,500000,,,,,,328.2,145.8,,,,16,5.87
66,Poly(dimethylsiloxane),Homopolymer,"Pentane, 2,2,4-trimethyl",C8H18,,,,,,500000,,,,,,328.2,,,5.46,C,36,
66,Poly(dimethylsiloxane),Homopolymer,"Pentane, 2,2,4-trimethyl",C8H18,,,,,,500000,,,,,,343.2,84.66,,,,16,5.94
66,Poly(dimethylsiloxane),Homopolymer,"Pentane, 2,2,4-trimethyl",C8H18,,,,,,500000,,,,,,343.2,,,5.52,C,36,
66,Poly(dimethylsiloxane),Homopolymer,"Benzene, 1,3,5-trimethyl",C9H12,,,,,,500000,,,,,,298.2,,,7.87,C,36,
66,Poly(dimethylsiloxane),Homopolymer,"Benzene, 1,3,5-trimethyl",C9H12,,,,,,500000,,,,,,313.2,,,7.49,C,36,
66,Poly(dimethylsiloxane),Homopolymer,"Benzene, 1,3,5-trimethyl",C9H12,,,,,,500000,,,,,,328.2,,,7.32,C,36,
66,Poly(dimethylsiloxane),Homopolymer,"Benzene, 1,3,5-trimethyl",C9H12,,,,,,500000,,,,,,343.2,,,7.15,C,36,
66,Poly(dimethylsiloxane),Homopolymer,Nonane,C9H20,,3700,,,,,,,,,,333.2,765.38,,,,24,5.9
67,Poly(dimethylsiloxane),Homopolymer,Decane,C10H22,,,,,,30000,,,,,,293.2,,0.64,,C,51,
68,"Poly(di(oxyethylene)oxyadipyl), alpha,omega-dihydroxy",Homopolymer,Glycerol triacetate,C9H14O6,,1910,,,,,,,,,,402.1,4544,,,,81,2.65
68,"Poly(di(oxyethylene)oxyadipyl), alpha,omega-dihydroxy",Homopolymer,Glycerol triacetate,C9H14O6,,1910,,,,,,,,,,411.8,2780,,,,81,2.65
68,"Poly(di(oxyethylene)oxyadipyl), alpha,omega-dihydroxy",Homopolymer,Glycerol triacetate,C9H14O6,,1910,,,,,,,,,,421.6,1757,,,,81,2.63
68,"Poly(di(oxyethylene)oxyadipyl), alpha,omega-dihydroxy",Homopolymer,Glycerol triacetate,C9H14O6,,1910,,,,,,,,,,431.1,1124,,,,81,2.69
69,"Poly(di(oxyethylene)oxysuccinyl), alpha,omega-dihydroxy",Homopolymer,Glycerol triacetate,C9H14O6,,890,,,,,,,,,,402.1,4525,,,,81,2.66
69,"Poly(di(oxyethylene)oxysuccinyl), alpha,omega-dihydroxy",Homopolymer,Glycerol triacetate,C9H14O6,,890,,,,,,,,,,411.8,2771,,,,81,2.66
69,"Poly(di(oxyethylene)oxysuccinyl), alpha,omega-dihydroxy",Homopolymer,Glycerol triacetate,C9H14O6,,890,,,,,,,,,,421.6,1766,,,,81,2.62
69,"Poly(di(oxyethylene)oxysuccinyl), alpha,omega-dihydroxy",Homopolymer,Glycerol triacetate,C9H14O6,,890,,,,,,,,,,431.1,1142,,,,81,2.65
70,Poly(epi-chlorohydrin),Homopolymer,"Methane, tetrachloro",CCl4,,,,700000,,,,,,,,353.2,27.35,,,,60,5.06
70,Poly(epi-chlorohydrin),Homopolymer,"Methane, tetrachloro",CCl4,,,,,,,,,,251.15,,349.2,33.51,,,,35,4.64
70,Poly(epi-chlorohydrin),Homopolymer,"Methane, tetrachloro",CCl4,,,,,,,,,,251.15,,398.2,9.5,,,,35,4.83
70,Poly(epi-chlorohydrin),Homopolymer,"Methane, trichloro",CHCl3,,,,700000,,,,,,,,353.2,36.65,,,,60,3.03
70,Poly(epi-chlorohydrin),Homopolymer,"Methane, trichloro",CHCl3,,,,,,,,,,251.15,,349.2,46.14,,,,35,2.69
70,Poly(epi-chlorohydrin),Homopolymer,"Methane, trichloro",CHCl3,,,,,,,,,,251.15,,398.2,11.8,,,,35,3.25
70,Poly(epi-chlorohydrin),Homopolymer,"Methane, dichloro",CH2Cl2,,,,700000,,,,,,,,353.2,22.5,,,,60,3.62
70,Poly(epi-chlorohydrin),Homopolymer,"Methane, dichloro",CH2Cl2,,,,,,,,,,251.15,,349.2,26.68,,,,35,3.39
70,Poly(epi-chlorohydrin),Homopolymer,"Methane, dichloro",CH2Cl2,,,,,,,,,,251.15,,398.2,8.7,,,,35,3.5
70,Poly(epi-chlorohydrin),Homopolymer,Methanol,CH4O,,,,,,,,,,251.15,,398.2,5.51,,,,35,19.4
70,Poly(epi-chlorohydrin),Homopolymer,"Ethene, trichloro",C2HCl3,,,,,,,,,,251.15,,349.2,60.49,,,,35,4.11
70,Poly(epi-chlorohydrin),Homopolymer,"Ethene, trichloro",C2HCl3,,,,,,,,,,251.15,,398.2,15.01,,,,35,4.33
70,Poly(epi-chlorohydrin),Homopolymer,"Ethane, 1,1,1-trichloro",C2H3Cl3,,,,700000,,,,,,,,353.2,29.97,,,,60,4.91
70,Poly(epi-chlorohydrin),Homopolymer,"Ethane, 1,1-dichloro",C2H4Cl2,,,,700000,,,,,,,,353.2,25.1,,,,60,4.76
70,Poly(epi-chlorohydrin),Homopolymer,"Ethane, 1,2-dichloro",C2H4Cl2,,,,700000,,,,,,,,353.2,69.4,,,,60,3.76
71,Poly(epi-chlorohydrin),Homopolymer,Ethanol,C2H6O,,,,,,,,,,251.15,,349.2,23.57,,,,35,23.4
71,Poly(epi-chlorohydrin),Homopolymer,Ethanol,C2H6O,,,,,,,,,,251.15,,398.2,6.81,,,,35,15.9
71,Poly(epi-chlorohydrin),Homopolymer,2-Propanone,C3H6O,,,,700000,,,,,,,,353.2,29.55,,,,60,6.66
71,Poly(epi-chlorohydrin),Homopolymer,2-Propanone,C3H6O,,,,,,,,,,251.15,,398.2,9.75,,,,35,6.89
71,Poly(epi-chlorohydrin),Homopolymer,"Acetic acid, methyl ester",C3H6O2,,,,700000,,,,,,,,353.2,25.85,,,,60,6.05
71,Poly(epi-chlorohydrin),Homopolymer,2-Propanol,C3H8O,,,,,,,,,,251.15,,349.2,25.78,,,,35,19.4
71,Poly(epi-chlorohydrin),Homopolymer,2-Propanol,C3H8O,,,,,,,,,,251.15,,398.2,6.75,,,,35,14.3
71,Poly(epi-chlorohydrin),Homopolymer,2-Butanone,C4H8O,,,,700000,,,,,,,,353.2,54.89,,,,60,5.83
71,Poly(epi-chlorohydrin),Homopolymer,2-Butanone,C4H8O,,,,,,,,,,251.15,,349.2,67.8,,,,35,5.34
71,Poly(epi-chlorohydrin),Homopolymer,2-Butanone,C4H8O,,,,,,,,,,251.15,,398.2,16.21,,,,35,6.05
71,Poly(epi-chlorohydrin),Homopolymer,"Furane, tetrahydro",C4H8O,,,,700000,,,,,,,,353.2,47.58,,,,60,4.42
71,Poly(epi-chlorohydrin),Homopolymer,"Furane, tetrahydro",C4H8O,,,,,,,,,,251.15,,349.2,58.58,,,,35,4.03
71,Poly(epi-chlorohydrin),Homopolymer,"Furane, tetrahydro",C4H8O,,,,,,,,,,251.15,,398.2,15.12,,,,35,4.61
71,Poly(epi-chlorohydrin),Homopolymer,"Acetic acid, ethyl ester",C4H8O2,,,,700000,,,,,,,,353.2,40.24,,,,60,6.07
71,Poly(epi-chlorohydrin),Homopolymer,"Acetic acid, ethyl ester",C4H8O2,,,,,,,,,,251.15,,349.2,51.06,,,,35,5.43
71,Poly(epi-chlorohydrin),Homopolymer,"Acetic acid, ethyl ester",C4H8O2,,,,,,,,,,251.15,,398.2,11.63,,,,35,6.36
72,Poly(epi-chlorohydrin),Homopolymer,"1,4-Dioxane",C4H8O2,,,,700000,,,,,,,,353.2,146.37,,,,60,3.6
72,Poly(epi-chlorohydrin),Homopolymer,"Butane, 1-chloro",C4H9Cl,,,,700000,,,,,,,,353.2,28.74,,,,60,8.37
72,Poly(epi-chlorohydrin),Homopolymer,"2-Propanol, 2-methyl",C4H10O,,,,,,,,,,251.15,,349.2,24.54,,,,35,
72,Poly(epi-chlorohydrin),Homopolymer,"2-Propanol, 2-methyl",C4H10O,,,,,,,,,,251.15,,398.2,6.2,,,,35,13.1
72,Poly(epi-chlorohydrin),Homopolymer,"Acetic acid, propyl ester",C5H10O2,,,,700000,,,,,,,,353.2,77.03,,,,60,6
72,Poly(epi-chlorohydrin),Homopolymer,"Pentane, 1-chloro",C5H11Cl,,,,700000,,,,,,,,353.2,57.51,,,,60,8.95
72,Poly(epi-chlorohydrin),Homopolymer,Pentane,C5H12,,,,700000,,,,,,,,353.2,2.65,,,,60,36
72,Poly(epi-chlorohydrin),Homopolymer,Pentane,C5H12,,,,,,,,,,251.15,,349.2,3.43,,,,35,30.6
72,Poly(epi-chlorohydrin),Homopolymer,"Benzene, 1-chloro-4-fluoro",C6H4ClF,,,,,,,,,,251.15,,349.2,263.7,,,,35,
72,Poly(epi-chlorohydrin),Homopolymer,"Benzene, 1-chloro-4-fluoro",C6H4ClF,,,,,,,,,,251.15,,398.2,48.82,,,,35,
72,Poly(epi-chlorohydrin),Homopolymer,Benzene,C6H6,,,,700000,,,,,,,,353.2,54.02,,,,60,5.53
72,Poly(epi-chlorohydrin),Homopolymer,Benzene,C6H6,,,,,,,,,,251.15,,349.2,67.51,,,,35,5
72,Poly(epi-chlorohydrin),Homopolymer,Benzene,C6H6,,,,,,,,,,251.15,,398.2,17.32,,,,35,5.41
73,Poly(epi-chlorohydrin),Homopolymer,Cyclohexene,C6H10,,,,700000,,,,,,,,353.2,25.86,,,,60,12.2
73,Poly(epi-chlorohydrin),Homopolymer,Cyclohexane,C6H12,,,,700000,,,,,,,,353.2,15.38,,,,60,18.4
73,Poly(epi-chlorohydrin),Homopolymer,Cyclohexane,C6H12,,,,,,,,,,251.15,,349.2,18.45,,,,35,17.3
73,Poly(epi-chlorohydrin),Homopolymer,Cyclohexane,C6H12,,,,,,,,,,251.15,,398.2,6.68,,,,35,13.6
73,Poly(epi-chlorohydrin),Homopolymer,"Acetic acid, butyl ester",C6H12O2,,,,700000,,,,,,,,353.2,149.63,,,,60,6.19
73,Poly(epi-chlorohydrin),Homopolymer,"Acetic acid, tert-butyl ester",C6H12O2,,,,,,,,,,251.15,,349.2,61.48,,,,35,6.24
73,Poly(epi-chlorohydrin),Homopolymer,"Acetic acid, tert-butyl ester",C6H12O2,,,,,,,,,,251.15,,398.2,13.21,,,,35,7.19
73,Poly(epi-chlorohydrin),Homopolymer,Hexane,C6H14,,,,700000,,,,,,,,353.2,5.38,,,,60,37
73,Poly(epi-chlorohydrin),Homopolymer,Hexane,C6H14,,,,,,,,,,251.15,,349.2,7.22,,,,35,30.9
73,Poly(epi-chlorohydrin),Homopolymer,Toluene,C7H8,,,,700000,,,,,,,,353.2,109.46,,,,60,5.93
73,Poly(epi-chlorohydrin),Homopolymer,Toluene,C7H8,,,,,,,,,,251.15,,349.2,141.57,,,,35,5.27
73,Poly(epi-chlorohydrin),Homopolymer,Toluene,C7H8,,,,,,,,,,251.15,,398.2,30.14,,,,35,5.76
73,Poly(epi-chlorohydrin),Homopolymer,Heptane,C7H16,,,,700000,,,,,,,,353.2,10.62,,,,60,38.9
73,Poly(epi-chlorohydrin),Homopolymer,Heptane,C7H16,,,,,,,,,,251.15,,349.2,15.44,,,,35,30.5
73,Poly(epi-chlorohydrin),Homopolymer,Heptane,C7H16,,,,,,,,,,251.15,,398.2,3.08,,,,35,38.9