Page,Solute,Solute_type,Solvent,Solvent_formula,MN_symbol,MN,MW_symbol,MW,MV_symbol,MV,per composition,per substitution,Tg_symbol,Tg (K),Note,T (K),Vg (cm3/g),chi_inf,omega_inf,U/C,Ref,calc_omega_inf
74,Poly(epi-chlorohydrin),Homopolymer,Octane,C8H18,,,,700000,,,,,,,,353.2,20.61,,,,60,42.6
74,Poly(epi-chlorohydrin),Homopolymer,Octane,C8H18,,,,,,,,,,251.15,,349.2,30.19,,,,35,33.8
74,Poly(epi-chlorohydrin),Homopolymer,Octane,C8H18,,,,,,,,,,251.15,,398.2,6.76,,,,35,31.2
74,Poly(epi-chlorohydrin),Homopolymer,Nonane,C9H20,,,,700000,,,,,,,,353.2,39.9,,,,60,46.8
74,Poly(epi-chlorohydrin),Homopolymer,Decane,C10H22,,,,,,,,,,251.15,,349.2,124.11,,,,35,39
74,Poly(epi-chlorohydrin),Homopolymer,Decane,C10H22,,,,,,,,,,251.15,,398.2,23.72,,,,35,29.1
74,Poly(epi-chlorohydrin),Homopolymer,Undecane,C11H24,,,,,,,,,,251.15,,398.2,41.82,,,,35,29.4
74,Poly(epi-chlorohydrin),Homopolymer,Dodecane,C12H26,,,,,,,,,,251.15,,398.2,68.31,,,,35,32.9
75,Poly(ethyl acrylate),Homopolymer,"Methane, trichloro",CHCl3,,80000,,,,,,,,,,393.2,16.5,,,,69,2.57
75,Poly(ethyl acrylate),Homopolymer,"Acetic acid, nitrile",C2H3N,,80000,,,,,,,,,,393.2,14.3,,,,69,15.1
75,Poly(ethyl acrylate),Homopolymer,2-Propanone,C3H6O,,80000,,,,,,,,,,393.2,7.4,,,,69,10.1
75,Poly(ethyl acrylate),Homopolymer,1-Propanol,C3H8O,,80000,,,,,,,,,,393.2,15.7,,,,69,11.5
75,Poly(ethyl acrylate),Homopolymer,2-Butanone,C4H8O,,80000,,,,,,,,,,393.2,12.7,,,,69,8.65
75,Poly(ethyl acrylate),Homopolymer,"Acetic acid, ethyl ester",C4H8O2,,80000,,,,,,,,,,393.2,10.5,,,,69,7.89
75,Poly(ethyl acrylate),Homopolymer,Hexane,C6H14,,80000,,,,,,,,,,393.2,2.7,,,,69,28.3
76,Polyethylene,Homopolymer,"Methane, tetrachloro",CCl4,,,,,,,,,,,8,408.2,,,2.01,C,53,
76,Polyethylene,Homopolymer,"Methane, trichloro",CHCl3,,,,,,,,,,,8,408.2,,,2.59,C,53,
76,Polyethylene,Homopolymer,Methyl chloride,CH3Cl,,,,,,,,,,,9,398.2,2.18,,,,15,6.36
76,Polyethylene,Homopolymer,Methyl chloride,CH3Cl,,,,,,,,,,,9,423.2,1.73,,,,15,
76,Polyethylene,Homopolymer,Methyl chloride,CH3Cl,,,,,,,,,,,9,448.2,1.37,,,,15,
76,Polyethylene,Homopolymer,Methyl chloride,CH3Cl,,,,,,,,,,,9,473.2,1.15,,,,15,
76,Polyethylene,Homopolymer,Methyl chloride,CH3Cl,,,,,,,,,,,9,498.2,0.986,,,,15,
76,Polyethylene,Homopolymer,Methyl chloride,CH3Cl,,,,,,,,,,,9,523.2,0.87,,,,15,
76,Polyethylene,Homopolymer,Carbon dioxide,CO2,,,,,,,,,,,9,398.2,0.401,,,,15,
76,Polyethylene,Homopolymer,Carbon dioxide,CO2,,,,,,,,,,,9,423.2,0.364,,,,15,
76,Polyethylene,Homopolymer,Carbon dioxide,CO2,,,,,,,,,,,9,448.2,0.335,,,,15,
76,Polyethylene,Homopolymer,Carbon dioxide,CO2,,,,,,,,,,,9,473.2,0.314,,,,15,
76,Polyethylene,Homopolymer,Carbon dioxide,CO2,,,,,,,,,,,9,498.2,0.3,,,,15,
76,Polyethylene,Homopolymer,Carbon dioxide,CO2,,,,,,,,,,,9,523.2,0.289,,,,15,
76,Polyethylene,Homopolymer,Ethene,C2H4,,16600,,82300,,,,,,,10,397.2,0.575,,,,18,
76,Polyethylene,Homopolymer,Ethene,C2H4,,16600,,82300,,,,,,,10,423.2,0.515,,,,18,
76,Polyethylene,Homopolymer,Ethene,C2H4,,16600,,82300,,,,,,,10,473.2,0.437,,,,18,
76,Polyethylene,Homopolymer,Ethene,C2H4,,16600,,82300,,,,,,,10,523.2,0.39,,,,18,
76,Polyethylene,Homopolymer,Ethene,C2H4,,16600,,82300,,,,,,,10,573.2,0.353,,,,18,
76,Polyethylene,Homopolymer,Ethene,C2H4,,,,,,,,,,,9,398.2,0.596,,,,15,
76,Polyethylene,Homopolymer,Ethene,C2H4,,,,,,,,,,,9,423.2,0.533,,,,15,
77,Polyethylene,Homopolymer,Ethene,C2H4,,,,,,,,,,,9,448.2,0.487,,,,15,
77,Polyethylene,Homopolymer,Ethene,C2H4,,,,,,,,,,,9,473.2,0.432,,,,15,
77,Polyethylene,Homopolymer,Ethene,C2H4,,,,,,,,,,,9,498.2,0.403,,,,15,
77,Polyethylene,Homopolymer,Ethene,C2H4,,,,,,,,,,,9,523.2,0.386,,,,15,
77,Polyethylene,Homopolymer,Ethane,C2H6,,,,,,,,,,,9,398.2,0.632,,,,15,
77,Polyethylene,Homopolymer,Ethane,C2H6,,,,,,,,,,,9,423.2,0.611,,,,15,
77,Polyethylene,Homopolymer,Ethane,C2H6,,,,,,,,,,,9,448.2,0.544,,,,15,
77,Polyethylene,Homopolymer,Ethane,C2H6,,,,,,,,,,,9,473.2,0.497,,,,15,
77,Polyethylene,Homopolymer,Ethane,C2H6,,,,,,,,,,,9,498.2,0.452,,,,15,
77,Polyethylene,Homopolymer,Ethane,C2H6,,,,,,,,,,,9,523.2,0.414,,,,15,
77,Polyethylene,Homopolymer,2-Propanone,C3H6O,,,,,,,,,,,9,398.2,4.29,,,,15,15.7
77,Polyethylene,Homopolymer,2-Propanone,C3H6O,,,,,,,,,,,9,423.2,2.97,,,,15,14.1
77,Polyethylene,Homopolymer,2-Propanone,C3H6O,,,,,,,,,,,9,448.2,2.41,,,,15,11.7
77,Polyethylene,Homopolymer,2-Propanone,C3H6O,,,,,,,,,,,9,473.2,1.89,,,,15,10.6
77,Polyethylene,Homopolymer,2-Propanone,C3H6O,,,,,,,,,,,9,498.2,1.5,,,,15,10.2
77,Polyethylene,Homopolymer,2-Propanone,C3H6O,,,,,,,,,,,9,523.2,1.29,,,,15,
77,Polyethylene,Homopolymer,"Propane, 2-nitro",C3H7NO2,,15000,,,,,,,,,11,413,15.35,,,,88,10.1
77,Polyethylene,Homopolymer,"Propane, 2-nitro",C3H7NO2,,15000,,,,,,,,,11,443,8.643,,,,88,9.07
77,Polyethylene,Homopolymer,2-Propanol,C3H8O,,,,,,,,,,,9,398.2,4.14,,,,15,23.2
77,Polyethylene,Homopolymer,2-Propanol,C3H8O,,,,,,,,,,,9,423.2,2.91,,,,15,17.6
77,Polyethylene,Homopolymer,2-Propanol,C3H8O,,,,,,,,,,,9,448.2,2.22,,,,15,13.8
78,Polyethylene,Homopolymer,2-Propanol,C3H8O,,,,,,,,,,,9,473.2,1.87,,,,15,10.8
78,Polyethylene,Homopolymer,2-Propanol,C3H8O,,,,,,,,,,,9,498.2,1.61,,,,15,9.04
78,Polyethylene,Homopolymer,2-Propanol,C3H8O,,,,,,,,,,,9,523.2,1.37,,,,15,
78,Polyethylene,Homopolymer,"Acetic acid, ethenyl ester",C4H6O2,,16600,,82300,,,,,,,10,397.2,7.59,,,,18,8.85
78,Polyethylene,Homopolymer,"Acetic acid, ethenyl ester",C4H6O2,,16600,,82300,,,,,,,10,423.2,5.01,,,,18,7.9
78,Polyethylene,Homopolymer,"Acetic acid, ethenyl ester",C4H6O2,,16600,,82300,,,,,,,10,473.2,2.61,,,,18,6.97
78,Polyethylene,Homopolymer,"Acetic acid, ethenyl ester",C4H6O2,,16600,,82300,,,,,,,10,523.2,1.55,,,,18,
78,Polyethylene,Homopolymer,"Acetic acid, ethenyl ester",C4H6O2,,16600,,82300,,,,,,,10,573.2,1.13,,,,18,
78,Polyethylene,Homopolymer,"Acetic acid, ethenyl ester",C4H6O2,,,,,,,,,,,9,398.2,7.66,,,,15,8.58
78,Polyethylene,Homopolymer,"Acetic acid, ethenyl ester",C4H6O2,,,,,,,,,,,9,423.2,4.88,,,,15,8.11
78,Polyethylene,Homopolymer,"Acetic acid, ethenyl ester",C4H6O2,,,,,,,,,,,9,448.2,3.34,,,,15,7.76
78,Polyethylene,Homopolymer,"Acetic acid, ethenyl ester",C4H6O2,,,,,,,,,,,9,473.2,2.55,,,,15,7.13
78,Polyethylene,Homopolymer,"Acetic acid, ethenyl ester",C4H6O2,,,,,,,,,,,9,498.2,2.03,,,,15,6.7
78,Polyethylene,Homopolymer,"Acetic acid, ethenyl ester",C4H6O2,,,,,,,,,,,9,523.2,1.66,,,,15,
78,Polyethylene,Homopolymer,2-Butanone,C4H8O,,,,,,,,,,,9,398.2,9.01,,,,15,10.9
78,Polyethylene,Homopolymer,2-Butanone,C4H8O,,,,,,,,,,,9,423.2,5.81,,,,15,10.1
78,Polyethylene,Homopolymer,2-Butanone,C4H8O,,,,,,,,,,,9,448.2,3.99,,,,15,9.52
78,Polyethylene,Homopolymer,2-Butanone,C4H8O,,,,,,,,,,,9,473.2,3.11,,,,15,8.46
78,Polyethylene,Homopolymer,2-Butanone,C4H8O,,,,,,,,,,,9,498.2,2.59,,,,15,7.47
78,Polyethylene,Homopolymer,2-Butanone,C4H8O,,,,,,,,,,,9,523.2,2.2,,,,15,6.87
78,Polyethylene,Homopolymer,"Furane, tetrahydro",C4H8O,,,,,,,,,,,12,323.2,33.86,,,,65,16.2
78,Polyethylene,Homopolymer,"Furane, tetrahydro",C4H8O,,,,,,,,,,,12,348.2,19.24,,,,65,12.6
78,Polyethylene,Homopolymer,"Furane, tetrahydro",C4H8O,,,,,,,,,,,12,373.2,14.4,,,,65,8.56
79,Polyethylene,Homopolymer,"Furane, tetrahydro",C4H8O,,,,,,,,,,,12,398.2,11.92,,,,65,5.85
79,Polyethylene,Homopolymer,"Butane, 1-chloro",C4H9Cl,,,,,,,,,,,8,408.2,,,4.48,C,53,
79,Polyethylene,Homopolymer,Butane,C4H10,,16600,,82300,,,,,,,10,397.2,3.27,,,,18,7.26
79,Polyethylene,Homopolymer,Butane,C4H10,,16600,,82300,,,,,,,10,423.2,2.38,,,,18,7.65
79,Polyethylene,Homopolymer,Butane,C4H10,,16600,,82300,,,,,,,10,473.2,1.46,,,,18,
79,Polyethylene,Homopolymer,Butane,C4H10,,16600,,82300,,,,,,,10,523.2,1.05,,,,18,
79,Polyethylene,Homopolymer,Butane,C4H10,,16600,,82300,,,,,,,10,573.2,0.789,,,,18,
79,Polyethylene,Homopolymer,1-Butanol,C4H10O,,15000,,,,,,,,,11,413,4.398,,,,88,35.4
79,Polyethylene,Homopolymer,1-Butanol,C4H10O,,15000,,,,,,,,,11,443,2.812,,,,88,24.8
79,Polyethylene,Homopolymer,1-Butanol,C4H10O,,,,,,,,,,,8,408.2,,,12.19,C,53,
79,Polyethylene,Homopolymer,"2-Propanol, 2-methyl",C4H10O,,15000,,,,,,,,,11,413,5.117,,,,88,10.9
79,Polyethylene,Homopolymer,"2-Propanol, 2-methyl",C4H10O,,15000,,,,,,,,,11,443,3.556,,,,88,8.31
79,Polyethylene,Homopolymer,2-Pentanone,C5H10O,,,,,,,,,,,8,408.2,,,7.53,C,53,
79,Polyethylene,Homopolymer,"Benzene, chloro",C6H5Cl,,,,,,,,,,,8,408.2,,,3.08,C,53,
79,Polyethylene,Homopolymer,"Benzene, chloro",C6H5Cl,,,,,,,,,,,12,323.2,347.65,,,,65,10.5
79,Polyethylene,Homopolymer,"Benzene, chloro",C6H5Cl,,,,,,,,,,,12,348.2,150.76,,,,65,8.47
79,Polyethylene,Homopolymer,"Benzene, chloro",C6H5Cl,,,,,,,,,,,12,373.2,93.35,,,,65,5.66
80,Polyethylene,Homopolymer,"Benzene, chloro",C6H5Cl,,,,,,,,,,,12,398.2,64.65,,,,65,3.86
80,Polyethylene,Homopolymer,"Benzene, chloro",C6H5Cl,,,,,,,,,,,12,423.2,34.71,,,,65,3.8
80,Polyethylene,Homopolymer,"Benzene, chloro",C6H5Cl,,,,,,,,,,,12,448.2,19.43,,,,65,3.92
80,Polyethylene,Homopolymer,Benzene,C6H6,,16600,,82300,,,,,,,10,397.2,22.8,,,,18,4.2
80,Polyethylene,Homopolymer,Benzene,C6H6,,16600,,82300,,,,,,,10,423.2,13.9,,,,18,4.05
80,Polyethylene,Homopolymer,Benzene,C6H6,,16600,,82300,,,,,,,10,473.2,6.51,,,,18,3.86
80,Polyethylene,Homopolymer,Benzene,C6H6,,16600,,82300,,,,,,,10,523.2,3.66,,,,18,3.78
80,Polyethylene,Homopolymer,Benzene,C6H6,,16600,,82300,,,,,,,10,573.2,2.41,,,,18,
80,Polyethylene,Homopolymer,Benzene,C6H6,,,,,,,,,,,8,408.2,,,4.1,C,53,
80,Polyethylene,Homopolymer,Benzene,C6H6,,,,,,,,,,,12,323.2,58.01,,,,65,14.1
80,Polyethylene,Homopolymer,Benzene,C6H6,,,,,,,,,,,12,348.2,32.52,,,,65,10.7
80,Polyethylene,Homopolymer,Benzene,C6H6,,,,,,,,,,,12,373.2,22.59,,,,65,7.55
80,Polyethylene,Homopolymer,Benzene,C6H6,,,,,,,,,,,12,398.2,18.96,,,,65,4.94
80,Polyethylene,Homopolymer,Benzene,C6H6,,,,,,,,,,,12,423.2,11.79,,,,65,4.78
80,Polyethylene,Homopolymer,Phenol,C6H6O,,15000,,,,,,,,,11,443,59.38,,,,88,5.81
80,Polyethylene,Homopolymer,Phenol,C6H6O,,15000,,,,,,,,,11,463,30.08,,,,88,6.66
80,Polyethylene,Homopolymer,Phenol,C6H6O,,,,,,,,,,,8,408.2,,,9.69,C,53,
80,Polyethylene,Homopolymer,Cyclohexane,C6H12,,,,,,,,,,,8,408.2,,,3.84,C,53,
80,Polyethylene,Homopolymer,Cyclohexanol,C6H12O,,,,,,,,,,,8,408.2,,,8.42,C,53,
81,Polyethylene,Homopolymer,"2-Pentanone, 4-methyl",C6H12O,,15000,,,,,,,,,11,413,21.05,,,,88,6.22
81,Polyethylene,Homopolymer,"2-Pentanone, 4-methyl",C6H12O,,15000,,,,,,,,,11,443,11.206,,,,88,6.17
81,Polyethylene,Homopolymer,"Acetic acid, butyl ester",C6H12O2,,15000,,,,,,,,,11,413,28.186,,,,88,5.01
81,Polyethylene,Homopolymer,"Acetic acid, butyl ester",C6H12O2,,15000,,,,,,,,,11,443,15.3,,,,88,4.64
81,Polyethylene,Homopolymer,Hexane,C6H14,,15000,,,,,,,,,11,413,9.119,,,,88,5.68
81,Polyethylene,Homopolymer,Hexane,C6H14,,15000,,,,,,,,,11,443,4.876,,,,88,6.44
81,Polyethylene,Homopolymer,Hexane,C6H14,,16600,,82300,,,,,,,10,397.2,13,,,,18,5.41
81,Polyethylene,Homopolymer,Hexane,C6H14,,16600,,82300,,,,,,,10,423.2,7.93,,,,18,5.46
81,Polyethylene,Homopolymer,Hexane,C6H14,,16600,,82300,,,,,,,10,473.2,3.84,,,,18,5.4
81,Polyethylene,Homopolymer,Hexane,C6H14,,16600,,82300,,,,,,,10,523.2,2.26,,,,18,
81,Polyethylene,Homopolymer,Hexane,C6H14,,16600,,82300,,,,,,,10,573.2,1.48,,,,18,
81,Polyethylene,Homopolymer,Toluene,C7H8,,15000,,,,,,,,,11,413,41.74,,,,88,2.91
81,Polyethylene,Homopolymer,Toluene,C7H8,,15000,,,,,,,,,11,443,22.206,,,,88,2.93
81,Polyethylene,Homopolymer,Toluene,C7H8,,,,82000,,,,,,,13,393.2,50.91,,,,47,3.88
81,Polyethylene,Homopolymer,Toluene,C7H8,,,,82000,,,,,,,13,418.3,27.46,,,,47,3.94
81,Polyethylene,Homopolymer,Toluene,C7H8,,16600,,82300,,,,,,,10,397.2,46.6,,,,18,3.82
81,Polyethylene,Homopolymer,Toluene,C7H8,,16600,,82300,,,,,,,10,423.2,25.9,,,,18,3.75
81,Polyethylene,Homopolymer,Toluene,C7H8,,16600,,82300,,,,,,,10,473.2,10.8,,,,18,3.56
81,Polyethylene,Homopolymer,Toluene,C7H8,,16600,,82300,,,,,,,10,523.2,5.35,,,,18,3.6
81,Polyethylene,Homopolymer,Toluene,C7H8,,16600,,82300,,,,,,,10,573.2,3.24,,,,18,3.57
81,Polyethylene,Homopolymer,Toluene,C7H8,,,,105000,,,,,,,14,418.6,25.89,,,,47,4.15
81,Polyethylene,Homopolymer,Toluene,C7H8,,,,105000,,,,,,,14,425.5,22.2,,,,47,4.17
81,Polyethylene,Homopolymer,Toluene,C7H8,,,,,,,,,,,12,323.2,169.47,,,,65,12
82,Polyethylene,Homopolymer,Toluene,C7H8,,,,,,,,,,,12,348.2,81.46,,,,65,9.48
82,Polyethylene,Homopolymer,Toluene,C7H8,,,,,,,,,,,12,373.2,50.92,,,,65,6.75
82,Polyethylene,Homopolymer,Toluene,C7H8,,,,,,,,,,,12,398.2,40.17,,,,65,4.32
82,Polyethylene,Homopolymer,Toluene,C7H8,,,,,,,,,,,12,423.2,22.18,,,,65,4.38
82,Polyethylene,Homopolymer,Toluene,C7H8,,,,,,,,,,,12,448.2,12.94,,,,65,4.57
82,Polyethylene,Homopolymer,Benzyl alcohol,C7H8O,,15000,,,,,,,,,11,433,85.02,,,,88,9.71
82,Polyethylene,Homopolymer,Benzyl alcohol,C7H8O,,15000,,,,,,,,,11,463,51.64,,,,88,6.17
82,Polyethylene,Homopolymer,Heptane,C7H16,,,,,,,,,,,12,323.2,79.08,,,,65,15.5
82,Polyethylene,Homopolymer,Heptane,C7H16,,,,,,,,,,,12,348.2,37.77,,,,65,12.9
82,Polyethylene,Homopolymer,Heptane,C7H16,,,,,,,,,,,12,373.2,26.73,,,,65,8.5
82,Polyethylene,Homopolymer,Heptane,C7H16,,,,,,,,,,,12,398.2,21.69,,,,65,5.52
82,Polyethylene,Homopolymer,Heptane,C7H16,,,,,,,,,,,12,423.2,12.27,,,,65,5.68
82,Polyethylene,Homopolymer,"Hexane, 3-methyl",C7H16,,,,82000,,,,,,,13,393.2,23.18,,,,47,4.91
82,Polyethylene,Homopolymer,"Hexane, 3-methyl",C7H16,,,,82000,,,,,,,13,418.3,13.18,,,,47,5.04
82,Polyethylene,Homopolymer,"Hexane, 3-methyl",C7H16,,,,105000,,,,,,,14,418.6,12.06,,,,47,5.48
82,Polyethylene,Homopolymer,"Hexane, 3-methyl",C7H16,,,,105000,,,,,,,14,425.8,10.08,,,,47,5.71
82,Polyethylene,Homopolymer,"Benzene, 1,3-dimethyl",C8H10,,,,82000,,,,,,,13,393.2,101.8,,,,47,3.69
82,Polyethylene,Homopolymer,"Benzene, 1,3-dimethyl",C8H10,,,,82000,,,,,,,13,418.3,50.65,,,,47,3.76
82,Polyethylene,Homopolymer,"Benzene, 1,3-dimethyl",C8H10,,,,105000,,,,,,,14,418.6,48.18,,,,47,3.92
82,Polyethylene,Homopolymer,"Benzene, 1,3-dimethyl",C8H10,,,,105000,,,,,,,14,425.5,40.63,,,,47,3.92
83,Polyethylene,Homopolymer,"Benzene, 1,4-dimethyl",C8H10,,,,82000,,,,,,,13,393.2,100.4,,,,47,3.66
83,Polyethylene,Homopolymer,"Benzene, 1,4-dimethyl",C8H10,,,,82000,,,,,,,13,418.3,50.08,,,,47,3.73
83,Polyethylene,Homopolymer,"Benzene, 1,4-dimethyl",C8H10,,,,105000,,,,,,,14,418.6,47.84,,,,47,3.87
83,Polyethylene,Homopolymer,"Benzene, 1,4-dimethyl",C8H10,,,,105000,,,,,,,14,425.5,40.24,,,,47,3.89
83,Polyethylene,Homopolymer,"Benzene, 1,4-dimethyl",C8H10,,,,,,,,,,,12,323.2,481.42,,,,65,
83,Polyethylene,Homopolymer,"Benzene, 1,4-dimethyl",C8H10,,,,,,,,,,,12,348.2,188.26,,,,65,8.97
83,Polyethylene,Homopolymer,"Benzene, 1,4-dimethyl",C8H10,,,,,,,,,,,12,373.2,112.99,,,,65,6.05
83,Polyethylene,Homopolymer,"Benzene, 1,4-dimethyl",C8H10,,,,,,,,,,,12,398.2,74.37,,,,65,4.28
83,Polyethylene,Homopolymer,"Benzene, 1,4-dimethyl",C8H10,,,,,,,,,,,12,423.2,38.56,,,,65,4.29
83,Polyethylene,Homopolymer,"Benzene, 1,4-dimethyl",C8H10,,,,,,,,,,,12,448.2,21.5,,,,65,4.38
83,Polyethylene,Homopolymer,"Benzene, ethyl",C8H10,,,,82000,,,,,,,13,393.2,89.9,,,,47,3.83
83,Polyethylene,Homopolymer,"Benzene, ethyl",C8H10,,,,82000,,,,,,,13,418.3,45.49,,,,47,3.88
83,Polyethylene,Homopolymer,"Benzene, ethyl",C8H10,,,,105000,,,,,,,14,418.6,43.54,,,,47,4.02
83,Polyethylene,Homopolymer,"Benzene, ethyl",C8H10,,,,105000,,,,,,,14,425.5,36.65,,,,47,4.05
83,Polyethylene,Homopolymer,1-Octene,C8H16,,,,,,,,,,,8,408.2,,,4.72,C,53,
83,Polyethylene,Homopolymer,1-Octene,C8H16,,,,,,,,,,,12,323.2,175.38,,,,65,14.4
83,Polyethylene,Homopolymer,1-Octene,C8H16,,,,,,,,,,,12,348.2,76.57,,,,65,11.9
83,Polyethylene,Homopolymer,1-Octene,C8H16,,,,,,,,,,,12,373.2,49.08,,,,65,7.97
83,Polyethylene,Homopolymer,1-Octene,C8H16,,,,,,,,,,,12,398.2,35.7,,,,65,5.37
83,Polyethylene,Homopolymer,1-Octene,C8H16,,,,,,,,,,,12,423.2,19.24,,,,65,5.46
83,Polyethylene,Homopolymer,1-Octene,C8H16,,,,,,,,,,,12,448.2,10.24,,,,65,6.15
83,Polyethylene,Homopolymer,"Heptane, 2-methyl",C8H18,,,,82000,,,,,,,13,393.2,40.32,,,,47,4.82
83,Polyethylene,Homopolymer,"Heptane, 2-methyl",C8H18,,,,82000,,,,,,,13,418.2,21.6,,,,47,4.88
84,Polyethylene,Homopolymer,"Heptane, 2-methyl",C8H18,,,,105000,,,,,,,14,418.6,20.13,,,,47,5.2
84,Polyethylene,Homopolymer,"Heptane, 2-methyl",C8H18,,,,105000,,,,,,,14,425.8,17.16,,,,47,5.21
84,Polyethylene,Homopolymer,"Heptane, 3-methyl",C8H18,,,,82000,,,,,,,13,393.2,43.09,,,,47,4.7
84,Polyethylene,Homopolymer,"Heptane, 3-methyl",C8H18,,,,82000,,,,,,,13,418.3,23.07,,,,47,4.74
84,Polyethylene,Homopolymer,"Heptane, 3-methyl",C8H18,,,,105000,,,,,,,14,418.6,21.37,,,,47,5.08
84,Polyethylene,Homopolymer,"Heptane, 3-methyl",C8H18,,,,105000,,,,,,,14,425.8,18.32,,,,47,5.05
84,Polyethylene,Homopolymer,"Hexane, 2,4-dimethyl",C8H18,,,,82000,,,,,,,13,393.2,32.38,,,,47,4.87
84,Polyethylene,Homopolymer,"Hexane, 2,4-dimethyl",C8H18,,,,82000,,,,,,,13,418.3,18.02,,,,47,4.89
84,Polyethylene,Homopolymer,"Hexane, 2,4-dimethyl",C8H18,,,,105000,,,,,,,14,418.6,16.78,,,,47,5.22
84,Polyethylene,Homopolymer,"Hexane, 2,4-dimethyl",C8H18,,,,105000,,,,,,,14,425.8,14.84,,,,47,5.08
84,Polyethylene,Homopolymer,"Hexane, 2,5-dimethyl",C8H18,,,,82000,,,,,,,13,393.2,31.17,,,,47,5.01
84,Polyethylene,Homopolymer,"Hexane, 2,5-dimethyl",C8H18,,,,82000,,,,,,,13,418.3,17.14,,,,47,5.09
84,Polyethylene,Homopolymer,"Hexane, 2,5-dimethyl",C8H18,,,,105000,,,,,,,14,418.6,15.88,,,,47,5.46
84,Polyethylene,Homopolymer,"Hexane, 2,5-dimethyl",C8H18,,,,105000,,,,,,,14,425.8,14.25,,,,47,5.24
84,Polyethylene,Homopolymer,"Hexane, 3,4-dimethyl",C8H18,,,,82000,,,,,,,13,393.2,45.28,,,,47,4.31
84,Polyethylene,Homopolymer,"Hexane, 3,4-dimethyl",C8H18,,,,82000,,,,,,,13,418.3,24.25,,,,47,4.4
84,Polyethylene,Homopolymer,"Hexane, 3,4-dimethyl",C8H18,,,,105000,,,,,,,14,418.6,22.53,,,,47,4.7
84,Polyethylene,Homopolymer,"Hexane, 3,4-dimethyl",C8H18,,,,105000,,,,,,,14,425.8,19.63,,,,47,4.62
84,Polyethylene,Homopolymer,Octane,C8H18,,15000,,,,,,,,,11,413,41.65,,,,88,3.46
85,Polyethylene,Homopolymer,Octane,C8H18,,15000,,,,,,,,,11,443,18.857,,,,88,3.92
85,Polyethylene,Homopolymer,Octane,C8H18,,,,82000,,,,,,,13,393.2,51.48,,,,47,4.71
85,Polyethylene,Homopolymer,Octane,C8H18,,,,82000,,,,,,,13,418.3,26.84,,,,47,4.73
85,Polyethylene,Homopolymer,Octane,C8H18,,16600,,82300,,,,,,,10,397.2,47.9,,,,18,4.53
85,Polyethylene,Homopolymer,Octane,C8H18,,16600,,82300,,,,,,,10,423.2,24.9,,,,18,4.55
85,Polyethylene,Homopolymer,Octane,C8H18,,16600,,82300,,,,,,,10,473.2,9.57,,,,18,4.45
85,Polyethylene,Homopolymer,Octane,C8H18,,16600,,82300,,,,,,,10,523.2,4.57,,,,18,4.62
85,Polyethylene,Homopolymer,Octane,C8H18,,16600,,82300,,,,,,,10,573.2,2.7,,,,18,
85,Polyethylene,Homopolymer,Octane,C8H18,,,,105000,,,,,,,14,418.6,25.1,,,,47,5.02
85,Polyethylene,Homopolymer,Octane,C8H18,,,,105000,,,,,,,14,425.5,21.62,,,,47,4.97
85,Polyethylene,Homopolymer,Octane,C8H18,,,,,,,,,,,12,323.2,207.47,,,,65,14.5
85,Polyethylene,Homopolymer,Octane,C8H18,,,,,,,,,,,12,348.2,87.73,,,,65,12.1
85,Polyethylene,Homopolymer,Octane,C8H18,,,,,,,,,,,12,373.2,54.91,,,,65,8.04
85,Polyethylene,Homopolymer,Octane,C8H18,,,,,,,,,,,12,398.2,39.45,,,,65,5.35
85,Polyethylene,Homopolymer,Octane,C8H18,,,,,,,,,,,12,423.2,21.96,,,,65,5.15
85,Polyethylene,Homopolymer,Octane,C8H18,,,,,,,,,,,12,448.2,12.55,,,,65,5.31
85,Polyethylene,Homopolymer,"Pentane, 2,2,4-trimethyl",C8H18,,,,82000,,,,,,,13,393.2,24.98,,,,47,4.92
85,Polyethylene,Homopolymer,"Pentane, 2,2,4-trimethyl",C8H18,,,,82000,,,,,,,13,418.3,14.36,,,,47,4.97
85,Polyethylene,Homopolymer,"Pentane, 2,2,4-trimethyl",C8H18,,,,105000,,,,,,,14,418.6,13.28,,,,47,5.34
85,Polyethylene,Homopolymer,"Pentane, 2,2,4-trimethyl",C8H18,,,,105000,,,,,,,14,425.8,11.75,,,,47,5.25
85,Polyethylene,Homopolymer,"Benzene, isopropyl",C9H12,,,,,,,,,,,12,323.2,626.61,,,,65,
85,Polyethylene,Homopolymer,"Benzene, isopropyl",C9H12,,,,,,,,,,,12,348.2,246.15,,,,65,
85,Polyethylene,Homopolymer,"Benzene, isopropyl",C9H12,,,,,,,,,,,12,373.2,142.37,,,,65,
85,Polyethylene,Homopolymer,"Benzene, isopropyl",C9H12,,,,,,,,,,,12,398.2,94.99,,,,65,
85,Polyethylene,Homopolymer,"Benzene, isopropyl",C9H12,,,,,,,,,,,12,423.2,49.38,,,,65,
86,Polyethylene,Homopolymer,"Benzene, isopropyl",C9H12,,,,,,,,,,,12,448.2,25.11,,,,65,
86,Polyethylene,Homopolymer,"Benzene, 1,3,5-trimethyl",C9H12,,,,82000,,,,,,,13,393.2,200.9,,,,47,3.51