Page,Solute,Solute_type,Solvent,Solvent_formula,MN_symbol,MN,MW_symbol,MW,MV_symbol,MV,per composition,per substitution,Tg_symbol,Tg (K),Note,T (K),Vg (cm3/g),chi_inf,omega_inf,U/C,Ref,calc_omega_inf
142,Poly(methyl acrylate),Homopolymer,"Acetic acid, ethyl ester",C4H8O2,,,,,,381000,,,,291.15,,349.2,53.11,,,,35,5.22
142,Poly(methyl acrylate),Homopolymer,"Acetic acid, ethyl ester",C4H8O2,,,,,,381000,,,,291.15,,398.2,16.58,,,,35,4.46
142,Poly(methyl acrylate),Homopolymer,"Acetic acid, ethyl ester",C4H8O2,,,,,,705940,,,,,,353.2,,0.53,,C,28,
142,Poly(methyl acrylate),Homopolymer,"Acetic acid, ethyl ester",C4H8O2,,,,,,705940,,,,,,373.2,,0.48,,C,28,
142,Poly(methyl acrylate),Homopolymer,"2-Propanol, 2-methyl",C4H10O,,,,,,381000,,,,291.15,,349.2,45.81,,,,35,
142,Poly(methyl acrylate),Homopolymer,"2-Propanol, 2-methyl",C4H10O,,,,,,381000,,,,291.15,,363.2,12.18,,,,35,6.68
142,Poly(methyl acrylate),Homopolymer,Pentane,C5H12,,,,,,381000,,,,291.15,,349.2,2.25,,,,35,46.6
142,Poly(methyl acrylate),Homopolymer,Benzene,C6H6,,63200,,200000,,,,,,,,363.2,,,5.8,C,4,
142,Poly(methyl acrylate),Homopolymer,Benzene,C6H6,,63200,,200000,,,,,,,,373.2,,,5.74,C,4,
142,Poly(methyl acrylate),Homopolymer,Benzene,C6H6,,63200,,200000,,,,,,,,383.2,,,5.65,C,4,
142,Poly(methyl acrylate),Homopolymer,Benzene,C6H6,,,,,,381000,,,,291.15,,349.2,66.94,,,,35,5.04
142,Poly(methyl acrylate),Homopolymer,Benzene,C6H6,,,,,,381000,,,,291.15,,398.2,19.01,,,,35,4.92
142,Poly(methyl acrylate),Homopolymer,Benzene,C6H6,,,,,,705940,,,,,,353.2,,0.44,,C,28,
142,Poly(methyl acrylate),Homopolymer,Benzene,C6H6,,,,,,705940,,,,,,373.2,,0.45,,C,28,
142,Poly(methyl acrylate),Homopolymer,Cyclohexane,C6H12,,63200,,200000,,,,,,,,363.2,,,22.02,C,4,
142,Poly(methyl acrylate),Homopolymer,Cyclohexane,C6H12,,63200,,200000,,,,,,,,373.2,,,20.19,C,4,
142,Poly(methyl acrylate),Homopolymer,Cyclohexane,C6H12,,63200,,200000,,,,,,,,383.2,,,18.27,C,4,
142,Poly(methyl acrylate),Homopolymer,Cyclohexane,C6H12,,,,,,381000,,,,291.15,,349.2,16.09,,,,35,19.8
142,Poly(methyl acrylate),Homopolymer,Cyclohexane,C6H12,,,,,,381000,,,,291.15,,398.2,6.87,,,,35,13.3
143,Poly(methyl acrylate),Homopolymer,Cyclohexane,C6H12,,,,,,705940,,,,,,353.2,,1.76,,C,28,
143,Poly(methyl acrylate),Homopolymer,Cyclohexane,C6H12,,,,,,705940,,,,,,373.2,,1.65,,C,28,
143,Poly(methyl acrylate),Homopolymer,"Acetic acid, tert-butyl ester",C6H12O2,,,,,,381000,,,,291.15,,349.2,57.91,,,,35,6.63
143,Poly(methyl acrylate),Homopolymer,"Acetic acid, tert-butyl ester",C6H12O2,,,,,,381000,,,,291.15,,398.2,15.81,,,,35,6.01
143,Poly(methyl acrylate),Homopolymer,Hexane,C6H14,,90000,,,,,,,,,,393.2,1.8,,,,69,42.5
143,Poly(methyl acrylate),Homopolymer,Hexane,C6H14,,,,,,381000,,,,291.15,,349.2,4.69,,,,35,47.5
143,Poly(methyl acrylate),Homopolymer,Toluene,C7H8,,63200,,200000,,,,,,,,363.2,,,6.84,C,4,
143,Poly(methyl acrylate),Homopolymer,Toluene,C7H8,,63200,,200000,,,,,,,,373.2,,,6.65,C,4,
143,Poly(methyl acrylate),Homopolymer,Toluene,C7H8,,63200,,200000,,,,,,,,383.2,,,6.62,C,4,
143,Poly(methyl acrylate),Homopolymer,Toluene,C7H8,,,,,,381000,,,,291.15,,349.2,126.05,,,,35,5.91
143,Poly(methyl acrylate),Homopolymer,Toluene,C7H8,,,,,,381000,,,,291.15,,398.2,31.13,,,,35,5.58
143,Poly(methyl acrylate),Homopolymer,Toluene,C7H8,,,,,,705940,,,,,,353.2,,0.6,,C,28,
143,Poly(methyl acrylate),Homopolymer,Toluene,C7H8,,,,,,705940,,,,,,373.2,,0.55,,C,28,
143,Poly(methyl acrylate),Homopolymer,Heptane,C7H16,,,,,,381000,,,,291.15,,349.2,12.1,,,,35,38.9
143,Poly(methyl acrylate),Homopolymer,Heptane,C7H16,,,,,,381000,,,,291.15,,398.2,4.43,,,,35,27
143,Poly(methyl acrylate),Homopolymer,"Benzene, ethyl",C8H10,,63200,,200000,,,,,,,,363.2,,,8,C,4,
143,Poly(methyl acrylate),Homopolymer,"Benzene, ethyl",C8H10,,63200,,200000,,,,,,,,373.2,,,7.62,C,4,
143,Poly(methyl acrylate),Homopolymer,"Benzene, ethyl",C8H10,,63200,,200000,,,,,,,,383.2,,,7.5,C,4,
144,Poly(methyl acrylate),Homopolymer,Octane,C8H18,,63200,,200000,,,,,,,,363.2,,,47.15,C,4,
144,Poly(methyl acrylate),Homopolymer,Octane,C8H18,,63200,,200000,,,,,,,,373.2,,,42.58,C,4,
144,Poly(methyl acrylate),Homopolymer,Octane,C8H18,,63200,,200000,,,,,,,,383.2,,,39.41,C,4,
144,Poly(methyl acrylate),Homopolymer,Octane,C8H18,,,,,,381000,,,,291.15,,349.2,23.35,,,,35,43.7
144,Poly(methyl acrylate),Homopolymer,Octane,C8H18,,,,,,381000,,,,291.15,,398.2,7.72,,,,35,27.3
144,Poly(methyl acrylate),Homopolymer,Octane,C8H18,,,,,,705940,,,,,,353.2,,2.36,,C,28,
144,Poly(methyl acrylate),Homopolymer,Octane,C8H18,,,,,,705940,,,,,,373.2,,2.24,,C,28,
144,Poly(methyl acrylate),Homopolymer,"Pentane, 2,2,4-trimethyl",C8H18,,63200,,200000,,,,,,,,363.2,,,46.53,C,4,
144,Poly(methyl acrylate),Homopolymer,"Pentane, 2,2,4-trimethyl",C8H18,,63200,,200000,,,,,,,,373.2,,,40.4,C,4,
144,Poly(methyl acrylate),Homopolymer,"Pentane, 2,2,4-trimethyl",C8H18,,63200,,200000,,,,,,,,383.2,,,35.49,C,4,
144,Poly(methyl acrylate),Homopolymer,"Hexane, 2,2,5-trimethyl",C9H20,,63200,,200000,,,,,,,,363.2,,,51.19,C,4,
144,Poly(methyl acrylate),Homopolymer,"Hexane, 2,2,5-trimethyl",C9H20,,63200,,200000,,,,,,,,373.2,,,44.53,C,4,
144,Poly(methyl acrylate),Homopolymer,"Hexane, 2,2,5-trimethyl",C9H20,,63200,,200000,,,,,,,,383.2,,,39.62,C,4,
144,Poly(methyl acrylate),Homopolymer,Naphthalene,C10H8,,63200,,200000,,,,,,,,373.2,,,4.7,C,4,
144,Poly(methyl acrylate),Homopolymer,Naphthalene,C10H8,,63200,,200000,,,,,,,,383.2,,,4.66,C,4,
144,Poly(methyl acrylate),Homopolymer,Tetralin,C10H12,,63200,,200000,,,,,,,,363.2,,,8.61,C,4,
144,Poly(methyl acrylate),Homopolymer,Tetralin,C10H12,,63200,,200000,,,,,,,,373.2,,,8.32,C,4,
144,Poly(methyl acrylate),Homopolymer,Tetralin,C10H12,,63200,,200000,,,,,,,,383.2,,,7.94,C,4,
144,Poly(methyl acrylate),Homopolymer,"Benzene, butyl",C10H14,,63200,,200000,,,,,,,,363.2,,,10.96,C,4,
145,Poly(methyl acrylate),Homopolymer,"Benzene, butyl",C10H14,,63200,,200000,,,,,,,,373.2,,,10.43,C,4,
145,Poly(methyl acrylate),Homopolymer,"Benzene, butyl",C10H14,,63200,,200000,,,,,,,,383.2,,,10.07,C,4,
145,Poly(methyl acrylate),Homopolymer,"Benzene, tert-butyl",C10H14,,63200,,200000,,,,,,,,363.2,,,9.74,C,4,
145,Poly(methyl acrylate),Homopolymer,"Benzene, tert-butyl",C10H14,,63200,,200000,,,,,,,,373.2,,,9.38,C,4,
145,Poly(methyl acrylate),Homopolymer,"Benzene, tert-butyl",C10H14,,63200,,200000,,,,,,,,383.2,,,9.05,C,4,
145,Poly(methyl acrylate),Homopolymer,Decalin (cis),C10H18,,63200,,200000,,,,,,,,363.2,,,26.23,C,4,
145,Poly(methyl acrylate),Homopolymer,Decalin (cis),C10H18,,63200,,200000,,,,,,,,373.2,,,23.33,C,4,
145,Poly(methyl acrylate),Homopolymer,Decalin (cis),C10H18,,63200,,200000,,,,,,,,383.2,,,21.15,C,4,
145,Poly(methyl acrylate),Homopolymer,Decalin (trans),C10H18,,63200,,200000,,,,,,,,363.2,,,28.76,C,4,
145,Poly(methyl acrylate),Homopolymer,Decalin (trans),C10H18,,63200,,200000,,,,,,,,373.2,,,25.39,C,4,
145,Poly(methyl acrylate),Homopolymer,Decalin (trans),C10H18,,63200,,200000,,,,,,,,383.2,,,23.08,C,4,
145,Poly(methyl acrylate),Homopolymer,"Cyclohexane, butyl",C10H20,,63200,,200000,,,,,,,,363.2,,,38.79,C,4,
145,Poly(methyl acrylate),Homopolymer,"Cyclohexane, butyl",C10H20,,63200,,200000,,,,,,,,373.2,,,35.22,C,4,
145,Poly(methyl acrylate),Homopolymer,"Cyclohexane, butyl",C10H20,,63200,,200000,,,,,,,,383.2,,,31.82,C,4,
145,Poly(methyl acrylate),Homopolymer,Decane,C10H22,,63200,,200000,,,,,,,,361.2,,,60.4,C,4,
145,Poly(methyl acrylate),Homopolymer,Decane,C10H22,,63200,,200000,,,,,,,,371.2,,,53.83,C,4,
145,Poly(methyl acrylate),Homopolymer,Decane,C10H22,,63200,,200000,,,,,,,,381.2,,,47.65,C,4,
145,Poly(methyl acrylate),Homopolymer,Decane,C10H22,,,,,,381000,,,,291.15,,349.2,88.88,,,,35,54.4
145,Poly(methyl acrylate),Homopolymer,Decane,C10H22,,,,,,381000,,,,291.15,,398.2,19.97,,,,35,34.6
146,Poly(methyl acrylate),Homopolymer,"Heptane, 3,4,5-trimethyl",C10H22,,63200,,200000,,,,,,,,363.2,,,45.81,C,4,
146,Poly(methyl acrylate),Homopolymer,"Heptane, 3,4,5-trimethyl",C10H22,,63200,,200000,,,,,,,,373.2,,,40.25,C,4,
146,Poly(methyl acrylate),Homopolymer,"Heptane, 3,4,5-trimethyl",C10H22,,63200,,200000,,,,,,,,383.2,,,36.42,C,4,
146,Poly(methyl acrylate),Homopolymer,"Hexane, 3,3,4,4-tetramethyl",C10H22,,63200,,200000,,,,,,,,363.2,,,33.87,C,4,
146,Poly(methyl acrylate),Homopolymer,"Hexane, 3,3,4,4-tetramethyl",C10H22,,63200,,200000,,,,,,,,373.2,,,30.14,C,4,
146,Poly(methyl acrylate),Homopolymer,"Hexane, 3,3,4,4-tetramethyl",C10H22,,63200,,200000,,,,,,,,383.2,,,27.36,C,4,
146,Poly(methyl acrylate),Homopolymer,Undecane,C11H24,,,,,,381000,,,,291.15,,349.2,166.78,,,,35,62.3
146,Poly(methyl acrylate),Homopolymer,Undecane,C11H24,,,,,,381000,,,,291.15,,398.2,31.44,,,,35,39.3
146,Poly(methyl acrylate),Homopolymer,Dodecane,C12H26,,63200,,200000,,,,,,,,363.2,,,80.7,C,4,
146,Poly(methyl acrylate),Homopolymer,Dodecane,C12H26,,63200,,200000,,,,,,,,373.2,,,71.29,C,4,
146,Poly(methyl acrylate),Homopolymer,Dodecane,C12H26,,63200,,200000,,,,,,,,383.2,,,63.31,C,4,
146,Poly(methyl acrylate),Homopolymer,Dodecane,C12H26,,,,,,381000,,,,291.15,,349.2,321.54,,,,35,71.4
146,Poly(methyl acrylate),Homopolymer,Dodecane,C12H26,,,,,,381000,,,,291.15,,398.2,51.53,,,,35,43.8
146,Poly(methyl acrylate),Homopolymer,Tetradecane,C14H30,,63200,,200000,,,,,,,,363.2,,,113.61,C,4,
146,Poly(methyl acrylate),Homopolymer,Tetradecane,C14H30,,63200,,200000,,,,,,,,373.2,,,98.23,C,4,
146,Poly(methyl acrylate),Homopolymer,Tetradecane,C14H30,,63200,,200000,,,,,,,,383.2,,,85.04,C,4,
147,Poly(methyl methacrylate),Homopolymer,"Methane, tetrachloro",CCl4,,100000,,,,,,,,371,37,423,4.1,,,,79,6.93
147,Poly(methyl methacrylate),Homopolymer,"Methane, trichloro",CHCl3,,6107,,6412,,,,,,,,423,7.92,,,,99,3.04
147,Poly(methyl methacrylate),Homopolymer,"Methane, trichloro",CHCl3,,6107,,6412,,,,,,,,448,5.218,,,,99,3.09
147,Poly(methyl methacrylate),Homopolymer,"Methane, trichloro",CHCl3,,6107,,6412,,,,,,,,473,3.577,,,,99,3.21
147,Poly(methyl methacrylate),Homopolymer,"Methane, trichloro",CHCl3,,100000,,,,,,,,371,37,423,11,,,,79,2.19
147,Poly(methyl methacrylate),Homopolymer,"Methane, trichloro",CHCl3,,,,,,,,,,378.15,,398.2,13.2,,,,2,2.9
147,Poly(methyl methacrylate),Homopolymer,"Methane, trichloro",CHCl3,,,,,,,,,,378.15,,423.2,8.3,,,,2,2.89
147,Poly(methyl methacrylate),Homopolymer,"Methane, trichloro",CHCl3,,,,,,,,,,378.15,,448.2,5.2,,,,2,3.1
147,Poly(methyl methacrylate),Homopolymer,"Methane, dichloro",CH2Cl2,,6107,,6412,,,,,,,,423,5.148,,,,99,3.86
147,Poly(methyl methacrylate),Homopolymer,"Methane, dichloro",CH2Cl2,,6107,,6412,,,,,,,,448,3.462,,,,99,3.99
147,Poly(methyl methacrylate),Homopolymer,"Methane, dichloro",CH2Cl2,,6107,,6412,,,,,,,,473,2.513,,,,99,4.05
147,Poly(methyl methacrylate),Homopolymer,Methyl chloride,CH3Cl,,100000,,,,,,,,371,37,423,6.3,,,,79,
147,Poly(methyl methacrylate),Homopolymer,Methanol,CH4O,,6107,,6412,,,,,,,,423,3.671,,,,99,16.2
147,Poly(methyl methacrylate),Homopolymer,Methanol,CH4O,,6107,,6412,,,,,,,,448,2.553,,,,99,14.1
147,Poly(methyl methacrylate),Homopolymer,Methanol,CH4O,,6107,,6412,,,,,,,,473,1.723,,,,99,13.6
147,Poly(methyl methacrylate),Homopolymer,Methanol,CH4O,,85100,,200000,,,,,a,391,,363,,,15.11,C,72,
147,Poly(methyl methacrylate),Homopolymer,Methanol,CH4O,,85100,,200000,,,,,a,391,,373.5,,,15.97,C,72,
147,Poly(methyl methacrylate),Homopolymer,Methanol,CH4O,,85100,,200000,,,,,a,391,,382.9,,,16.54,C,72,
147,Poly(methyl methacrylate),Homopolymer,Methanol,CH4O,,85100,,200000,,,,,a,391,,398.4,,,16.24,C,72,
147,Poly(methyl methacrylate),Homopolymer,Methanol,CH4O,,85100,,200000,,,,,a,391,,398.4,,,17.22,C,72,
147,Poly(methyl methacrylate),Homopolymer,Methanol,CH4O,,85100,,200000,,,,,a,391,,403.6,,,17.1,C,72,
148,Poly(methyl methacrylate),Homopolymer,Methanol,CH4O,,85100,,200000,,,,,a,391,,408.6,,,15.57,C,72,
148,Poly(methyl methacrylate),Homopolymer,Methanol,CH4O,,85100,,200000,,,,,a,391,,408.7,,,15.91,C,72,
148,Poly(methyl methacrylate),Homopolymer,Methanol,CH4O,,85100,,200000,,,,,a,391,,423.8,,,14.57,C,72,
148,Poly(methyl methacrylate),Homopolymer,Methanol,CH4O,,85100,,200000,,,,,a,391,,423.9,,,14.55,C,72,
148,Poly(methyl methacrylate),Homopolymer,Methanol,CH4O,,85100,,200000,,,,,a,391,,434,,,13.91,C,72,
148,Poly(methyl methacrylate),Homopolymer,Methanol,CH4O,,85100,,200000,,,,,a,391,,444,,,13.59,C,72,
148,Poly(methyl methacrylate),Homopolymer,Methanol,CH4O,,100000,,,,,,,,371,37,423,9,,,,79,6.6
148,Poly(methyl methacrylate),Homopolymer,"Acetic acid, nitrile",C2H3N,,6107,,6412,,,,,,,,423,7.904,,,,99,14.5
148,Poly(methyl methacrylate),Homopolymer,"Acetic acid, nitrile",C2H3N,,6107,,6412,,,,,,,,448,5.34,,,,99,13.8
148,Poly(methyl methacrylate),Homopolymer,"Acetic acid, nitrile",C2H3N,,6107,,6412,,,,,,,,473,3.592,,,,99,14
148,Poly(methyl methacrylate),Homopolymer,"Ethane, 1,2-dichloro",C2H4Cl2,,6107,,6412,,,,,,,,423,10.735,,,,99,4.2
148,Poly(methyl methacrylate),Homopolymer,"Ethane, 1,2-dichloro",C2H4Cl2,,6107,,6412,,,,,,,,448,6.889,,,,99,4.12
148,Poly(methyl methacrylate),Homopolymer,"Ethane, 1,2-dichloro",C2H4Cl2,,6107,,6412,,,,,,,,473,4.575,,,,99,4.15
148,Poly(methyl methacrylate),Homopolymer,"Ethane, 1,2-dichloro",C2H4Cl2,,,,,,,,,,378.15,,398.2,19.2,,,,2,4.02
148,Poly(methyl methacrylate),Homopolymer,"Ethane, 1,2-dichloro",C2H4Cl2,,,,,,,,,,378.15,,423.2,11,,,,2,4.09
148,Poly(methyl methacrylate),Homopolymer,"Ethane, 1,2-dichloro",C2H4Cl2,,,,,,,,,,378.15,,448.2,6.9,,,,2,4.1
148,Poly(methyl methacrylate),Homopolymer,Acetic acid,C2H4O2,,6107,,6412,,,,,,,,423,,,6.168,U,99,
148,Poly(methyl methacrylate),Homopolymer,Acetic acid,C2H4O2,,6107,,6412,,,,,,,,448,,,5.818,U,99,
148,Poly(methyl methacrylate),Homopolymer,Acetic acid,C2H4O2,,6107,,6412,,,,,,,,473,,,5.433,U,99,
148,Poly(methyl methacrylate),Homopolymer,Ethanol,C2H6O,,100000,,,,,,,,371,37,423,9.2,,,,79,6.23
149,Poly(methyl methacrylate),Homopolymer,"1,2-Ethanediol",C2H6O2,,6107,,6412,,,,,,,,423,60.544,,,,99,30.3
149,Poly(methyl methacrylate),Homopolymer,"1,2-Ethanediol",C2H6O2,,6107,,6412,,,,,,,,448,33.15,,,,99,22.6
149,Poly(methyl methacrylate),Homopolymer,"1,2-Ethanediol",C2H6O2,,6107,,6412,,,,,,,,473,18.634,,,,99,18.4
149,Poly(methyl methacrylate),Homopolymer,2-Propanone,C3H6O,,6107,,6412,,,,,,,,423,3.738,,,,99,11.3
149,Poly(methyl methacrylate),Homopolymer,2-Propanone,C3H6O,,6107,,6412,,,,,,,,448,2.792,,,,99,10.1
149,Poly(methyl methacrylate),Homopolymer,2-Propanone,C3H6O,,6107,,6412,,,,,,,,473,2.119,,,,99,9.51
149,Poly(methyl methacrylate),Homopolymer,2-Propanone,C3H6O,,100000,,,,,,,,371,37,423,5.3,,,,79,7.94
149,Poly(methyl methacrylate),Homopolymer,"Acetic acid, methyl ester",C3H6O2,,85100,,200000,,,,,a,391,,398.5,,,6.25,C,72,
149,Poly(methyl methacrylate),Homopolymer,"Acetic acid, methyl ester",C3H6O2,,85100,,200000,,,,,a,391,,408.7,,,7.97,C,72,
149,Poly(methyl methacrylate),Homopolymer,"Acetic acid, methyl ester",C3H6O2,,85100,,200000,,,,,a,391,,424.1,,,7.4,C,72,
149,Poly(methyl methacrylate),Homopolymer,"Acetic acid, methyl ester",C3H6O2,,85100,,200000,,,,,a,391,,434.2,,,7.2,C,72,
149,Poly(methyl methacrylate),Homopolymer,"Formic acid, amide, N,N-dimethyl",C3H7NO,,6107,,6412,,,,,,,,423,38.902,,,,99,8.85
149,Poly(methyl methacrylate),Homopolymer,"Formic acid, amide, N,N-dimethyl",C3H7NO,,6107,,6412,,,,,,,,448,22.01,,,,99,8.89
149,Poly(methyl methacrylate),Homopolymer,"Formic acid, amide, N,N-dimethyl",C3H7NO,,6107,,6412,,,,,,,,473,13.232,,,,99,9.12
149,Poly(methyl methacrylate),Homopolymer,"Formic acid, amide, N,N-dimethyl",C3H7NO,,,,,,,,,,,,473.2,16.38,,,,44,7.34
149,Poly(methyl methacrylate),Homopolymer,2-Propanol,C3H8O,,6107,,6412,,,,,,,,423,3.178,,,,99,16.2
149,Poly(methyl methacrylate),Homopolymer,2-Propanol,C3H8O,,6107,,6412,,,,,,,,448,2.719,,,,99,11.3
149,Poly(methyl methacrylate),Homopolymer,2-Propanol,C3H8O,,6107,,6412,,,,,,,,473,2.081,,,,99,9.72
149,Poly(methyl methacrylate),Homopolymer,2-Butanone,C4H8O,,6107,,6412,,,,,,,,423,5.385,,,,99,10.9
150,Poly(methyl methacrylate),Homopolymer,2-Butanone,C4H8O,,6107,,6412,,,,,,,,448,4.075,,,,99,9.34
150,Poly(methyl methacrylate),Homopolymer,2-Butanone,C4H8O,,6107,,6412,,,,,,,,473,2.994,,,,99,8.81
150,Poly(methyl methacrylate),Homopolymer,2-Butanone,C4H8O,,19770,,,,,,,,,38,321.7,141.9,,,,87,6.7
150,Poly(methyl methacrylate),Homopolymer,2-Butanone,C4H8O,,100000,,,,,,,,371,37,423,8.1,,,,79,7.26
150,Poly(methyl methacrylate),Homopolymer,2-Butanone,C4H8O,,,,,,,,,,,,298.2,,0.966,,C,32,
150,Poly(methyl methacrylate),Homopolymer,2-Butanone,C4H8O,,,,,,,,,,,,323.7,,0.52,,C,32,
150,Poly(methyl methacrylate),Homopolymer,2-Butanone,C4H8O,,,,,,,,,,,,345.6,,0.566,,C,32,
150,Poly(methyl methacrylate),Homopolymer,2-Butanone,C4H8O,,,,,,,,,,,,363.7,,0.328,,C,32,
150,Poly(methyl methacrylate),Homopolymer,2-Butanone,C4H8O,,,,,,,,,,,,383.7,,0.432,,C,32,
150,Poly(methyl methacrylate),Homopolymer,2-Butanone,C4H8O,,,,,,,,,,,,428.7,,0.932,,C,32,
150,Poly(methyl methacrylate),Homopolymer,"Furane, tetrahydro",C4H8O,,6107,,6412,,,,,,,,423,4.075,,,,99,10.36
150,Poly(methyl methacrylate),Homopolymer,"Furane, tetrahydro",C4H8O,,6107,,6412,,,,,,,,448,3.609,,,,99,7.92
150,Poly(methyl methacrylate),Homopolymer,"Furane, tetrahydro",C4H8O,,6107,,6412,,,,,,,,473,2.913,,,,99,6.89
150,Poly(methyl methacrylate),Homopolymer,"Furane, tetrahydro",C4H8O,,,,,,,,,,,,298.2,,0.847,,C,32,
150,Poly(methyl methacrylate),Homopolymer,"Furane, tetrahydro",C4H8O,,,,,,,,,,,,323.7,,0.569,,C,32,
150,Poly(methyl methacrylate),Homopolymer,"Furane, tetrahydro",C4H8O,,,,,,,,,,,,345.6,,0.584,,C,32,
150,Poly(methyl methacrylate),Homopolymer,"Furane, tetrahydro",C4H8O,,,,,,,,,,,,363.7,,0.337,,C,32,
150,Poly(methyl methacrylate),Homopolymer,"Furane, tetrahydro",C4H8O,,,,,,,,,,,,383.7,,0.46,,C,32,
150,Poly(methyl methacrylate),Homopolymer,"Furane, tetrahydro",C4H8O,,,,,,,,,,,,428.7,,0.658,,C,32,
150,Poly(methyl methacrylate),Homopolymer,"Acetic acid, ethyl ester",C4H8O2,,6107,,6412,,,,,,,,423,4.174,,,,99,10.6
150,Poly(methyl methacrylate),Homopolymer,"Acetic acid, ethyl ester",C4H8O2,,6107,,6412,,,,,,,,448,3.333,,,,99,8.62
150,Poly(methyl methacrylate),Homopolymer,"Acetic acid, ethyl ester",C4H8O2,,6107,,6412,,,,,,,,473,2.478,,,,99,8.04
150,Poly(methyl methacrylate),Homopolymer,1-Butanol,C4H10O,,6107,,6412,,,,,,,,423,8.953,,,,99,13
151,Poly(methyl methacrylate),Homopolymer,1-Butanol,C4H10O,,6107,,6412,,,,,,,,448,6.586,,,,99,9.42
151,Poly(methyl methacrylate),Homopolymer,1-Butanol,C4H10O,,6107,,6412,,,,,,,,473,4.575,,,,99,7.97
151,Poly(methyl methacrylate),Homopolymer,"Propenoic acid, 2-methyl, methyl ester",C5H8O2,,85100,,200000,,,,,a,391,,408.7,,,5.14,C,72,
151,Poly(methyl methacrylate),Homopolymer,"Propenoic acid, 2-methyl, methyl ester",C5H8O2,,85100,,200000,,,,,a,391,,424.1,,,7.91,C,72,
151,Poly(methyl methacrylate),Homopolymer,"Propenoic acid, 2-methyl, methyl ester",C5H8O2,,85100,,200000,,,,,a,391,,434.3,,,7.16,C,72,
151,Poly(methyl methacrylate),Homopolymer,2-Pentanone,C5H10O,,100000,,,,,,,,371,37,423,12,,,,79,6.87
151,Poly(methyl methacrylate),Homopolymer,3-Pentanone,C5H10O,,,,,,,,,,,,298.2,,1.21,,C,32,
151,Poly(methyl methacrylate),Homopolymer,3-Pentanone,C5H10O,,,,,,,,,,,,323.7,,0.869,,C,32,
151,Poly(methyl methacrylate),Homopolymer,3-Pentanone,C5H10O,,,,,,,,,,,,345.6,,0.769,,C,32,
151,Poly(methyl methacrylate),Homopolymer,3-Pentanone,C5H10O,,,,,,,,,,,,363.7,,0.597,,C,32,
151,Poly(methyl methacrylate),Homopolymer,3-Pentanone,C5H10O,,,,,,,,,,,,383.7,,0.558,,C,32,
151,Poly(methyl methacrylate),Homopolymer,3-Pentanone,C5H10O,,,,,,,,,,,,428.7,,0.589,,C,32,
151,Poly(methyl methacrylate),Homopolymer,"Benzene, 1,2-dichloro",C6H4Cl2,,,,,,,,,,,,473.2,24.56,,,,44,4.12
151,Poly(methyl methacrylate),Homopolymer,Benzene,C6H6,,6107,,6412,,,,,,,,423,7.158,,,,99,7.89
151,Poly(methyl methacrylate),Homopolymer,Benzene,C6H6,,6107,,6412,,,,,,,,448,5.188,,,,99,7.05
151,Poly(methyl methacrylate),Homopolymer,Benzene,C6H6,,6107,,6412,,,,,,,,473,3.545,,,,99,7.1
151,Poly(methyl methacrylate),Homopolymer,Benzene,C6H6,,100000,,,,,,,,371,37,423,8.9,,,,79,6.35
151,Poly(methyl methacrylate),Homopolymer,Benzene,C6H6,,,,,,,,,,378.15,,398.2,11.5,,,,2,8.14
151,Poly(methyl methacrylate),Homopolymer,Benzene,C6H6,,,,,,,,,,378.15,,423.2,7.9,,,,2,7.13