Page,Solute,Solute_type,Solvent,Solvent_formula,MN_symbol,MN,MW_symbol,MW,MV_symbol,MV,per composition,per substitution,Tg_symbol,Tg (K),Note,T (K),Vg (cm3/g),chi_inf,omega_inf,U/C,Ref,calc_omega_inf
123,Poly(ethyl methacrylate),Homopolymer,"Ether, dipropyl",C6H14O,,144000,,,,,,,,,,417.7,,,11.399,C,6,
123,Poly(ethyl methacrylate),Homopolymer,Toluene,C7H8,,144000,,,,,,,,,,417.7,,,5.878,C,6,
123,Poly(ethyl methacrylate),Homopolymer,"Cyclohexane, methyl",C7H14,,144000,,,,,,,,,,417.7,,,16.147,C,6,
124,Poly(ethyl methacrylate),Homopolymer,Heptane,C7H16,,144000,,,,,,,,,,417.7,,,19.226,C,6,
124,Poly(ethyl methacrylate),Homopolymer,"Benzene, ethyl",C8H10,,144000,,,,,,,,,,417.7,,,6.079,C,6,
124,Poly(ethyl methacrylate),Homopolymer,"Cyclohexane, ethyl",C8H16,,144000,,,,,,,,,,417.7,,,14.524,C,6,
124,Poly(ethyl methacrylate),Homopolymer,1-Octene,C8H16,,144000,,,,,,,,,,417.7,,,14.232,C,6,
124,Poly(ethyl methacrylate),Homopolymer,Octane,C8H18,,144000,,,,,,,,,,417.7,,,18.571,C,6,
124,Poly(ethyl methacrylate),Homopolymer,Nonane,C9H20,,144000,,,,,,,,,,417.7,,,18.098,C,6,
124,Poly(ethyl methacrylate),Homopolymer,Decane,C10H22,,144000,,,,,,,,,,417.7,,,17.759,C,6,
125,"Poly(hexamethylene carbonate), alpha,omega-dihydroxy",Homopolymer,Glycerol triacetate,C9H14O6,,2410,,,,,,,,,,402.1,3860,,,,81,3.12
125,"Poly(hexamethylene carbonate), alpha,omega-dihydroxy",Homopolymer,Glycerol triacetate,C9H14O6,,2410,,,,,,,,,,411.8,2337,,,,81,3.16
125,"Poly(hexamethylene carbonate), alpha,omega-dihydroxy",Homopolymer,Glycerol triacetate,C9H14O6,,2410,,,,,,,,,,421.6,1522,,,,81,3.04
125,"Poly(hexamethylene carbonate), alpha,omega-dihydroxy",Homopolymer,Glycerol triacetate,C9H14O6,,2410,,,,,,,,,,431.1,999,,,,81,3.03
126,Poly(hexamethylene sebacate),Homopolymer,"Methane, tetrachloro",CCl4,,,,30000,,,,,,,32,393.2,18.6,,,,37,2.74
126,Poly(hexamethylene sebacate),Homopolymer,"Methane, trichloro",CHCl3,,,,30000,,,,,,,32,393.2,22.5,,,,37,1.89
126,Poly(hexamethylene sebacate),Homopolymer,"Methane, dichloro",CH2Cl2,,,,30000,,,,,,,32,393.2,14,,,,37,2.39
126,Poly(hexamethylene sebacate),Homopolymer,2-Propanone,C3H6O,,,,30000,,,,,,,32,393.2,8.3,,,,37,8.98
126,Poly(hexamethylene sebacate),Homopolymer,2-Butanone,C4H8O,,,,30000,,,,,,,32,393.2,16,,,,37,6.86
126,Poly(hexamethylene sebacate),Homopolymer,"Acetic acid, ethyl ester",C4H8O2,,,,30000,,,,,,,32,393.2,13.4,,,,37,6.19
126,Poly(hexamethylene sebacate),Homopolymer,Pentane,C5H12,,,,30000,,,,,,,32,393.2,2.8,,,,37,15.2
126,Poly(hexamethylene sebacate),Homopolymer,Benzene,C6H6,,,,30000,,,,,,,32,393.2,25.2,,,,37,4.16
126,Poly(hexamethylene sebacate),Homopolymer,Hexane,C6H14,,,,30000,,,,,,,32,393.2,9.8,,,,37,7.8
126,Poly(hexamethylene sebacate),Homopolymer,Heptane,C7H16,,,,30000,,,,,,,32,393.2,11.2,,,,37,12
127,Poly(n-hexyl acrylate),Homopolymer,"Methane, trichloro",CHCl3,,75000,,,,,,,,,,393.2,19.3,,,,69,2.2
127,Poly(n-hexyl acrylate),Homopolymer,"Acetic acid, nitrile",C2H3N,,75000,,,,,,,,,,393.2,9.7,,,,69,22.3
127,Poly(n-hexyl acrylate),Homopolymer,2-Propanone,C3H6O,,75000,,,,,,,,,,393.2,6.1,,,,69,12.2
127,Poly(n-hexyl acrylate),Homopolymer,1-Propanol,C3H8O,,75000,,,,,,,,,,393.2,13.4,,,,69,13.4
127,Poly(n-hexyl acrylate),Homopolymer,2-Butanone,C4H8O,,75000,,,,,,,,,,393.2,12.3,,,,69,8.93
127,Poly(n-hexyl acrylate),Homopolymer,"Acetic acid, ethyl ester",C4H8O2,,75000,,,,,,,,,,393.2,11,,,,69,7.54
127,Poly(n-hexyl acrylate),Homopolymer,Hexane,C6H14,,75000,,,,,,,,,,393.2,6.5,,,,69,11.8
128,Poly(n-hexyl methacrylate),Homopolymer,"Methane, trichloro",CHCl3,,72000,,,,,,,,,,393.2,16.7,,,,69,2.54
128,Poly(n-hexyl methacrylate),Homopolymer,"Acetic acid, nitrile",C2H3N,,72000,,,,,,,,,,393.2,7.4,,,,69,29.2
128,Poly(n-hexyl methacrylate),Homopolymer,2-Propanone,C3H6O,,72000,,,,,,,,,,393.2,5.6,,,,69,13.3
128,Poly(n-hexyl methacrylate),Homopolymer,1-Propanol,C3H8O,,72000,,,,,,,,,,393.2,11.8,,,,69,15.2
128,Poly(n-hexyl methacrylate),Homopolymer,2-Butanone,C4H8O,,72000,,,,,,,,,,393.2,10.6,,,,69,10.4
128,Poly(n-hexyl methacrylate),Homopolymer,"Acetic acid, ethyl ester",C4H8O2,,72000,,,,,,,,,,393.2,9.6,,,,69,8.63
128,Poly(n-hexyl methacrylate),Homopolymer,Hexane,C6H14,,72000,,,,,,,,,,393.2,6.3,,,,69,12.1
129,Poly(2-hydroxyethyl methacrylate),Homopolymer,"Formic acid, amide, N,N-dimethyl",C3H7NO,,,,,,,,,,,,433.2,61.1,,,,75,4.43
129,Poly(2-hydroxyethyl methacrylate),Homopolymer,"Diethyleneglycol, monomethyl ether",C5H12O3,,,,,,,,,,,,433.2,70.2,,,,75,7.38
129,Poly(2-hydroxyethyl methacrylate),Homopolymer,"Benzene, pentyl",C11H16,,,,,,,,,,,,433.2,0,,,,75,
129,Poly(2-hydroxyethyl methacrylate),Homopolymer,Tetradecane,C14H30,,,,,,,,,,,,433.2,2,,,,75,863
130,Polyisobutylene,Homopolymer,"Methane, tetrachloro",CCl4,,40000,,,,,,,,,33,298.2,387.4,,,,63,2.53
130,Polyisobutylene,Homopolymer,"Methane, trichloro",CHCl3,,40000,,,,,,,,,33,298.2,262.9,,,,63,2.8
130,Polyisobutylene,Homopolymer,"Methane, dichloro",CH2Cl2,,40000,,,,,,,,,33,298.2,137.2,,,,63,3.45
130,Polyisobutylene,Homopolymer,Pentane,C5H12,,40000,,,,,,,,,33,298.2,54.8,,,,63,8.71
130,Polyisobutylene,Homopolymer,Pentane,C5H12,a,860000,,,,,,,,,,313.1,39.04,,,,84,7.33
130,Polyisobutylene,Homopolymer,Pentane,C5H12,a,860000,,,,,,,,,,323.1,29.19,,,,84,7.2
130,Polyisobutylene,Homopolymer,Benzene,C6H6,,40000,,,,,,,,,33,298.2,405.1,,,,63,5.72
130,Polyisobutylene,Homopolymer,Benzene,C6H6,a,860000,,,,,,,,,,313.1,191.18,,,,84,6.35
130,Polyisobutylene,Homopolymer,Benzene,C6H6,a,860000,,,,,,,,,,323.1,131.4,,,,84,6.25
130,Polyisobutylene,Homopolymer,Benzene,C6H6,,,,,,53000,,,,,,323.2,,,5.93,C,8,
130,Polyisobutylene,Homopolymer,Benzene,C6H6,,,,,,53000,,,,,,323.2,112,,,,26,7.32
130,Polyisobutylene,Homopolymer,Benzene,C6H6,,,,,,53000,,,,,,348.2,,,5.84,C,8,
130,Polyisobutylene,Homopolymer,Benzene,C6H6,,,,,,53000,,,,,,348.2,56.1,,,,26,6.2
130,Polyisobutylene,Homopolymer,Benzene,C6H6,,,,,,53000,,,,,,373.2,,,5.75,C,8,
130,Polyisobutylene,Homopolymer,Benzene,C6H6,,,,,,53000,,,,,,373.2,29.7,,,,26,5.74
130,Polyisobutylene,Homopolymer,Benzene,C6H6,,,,,,53000,,,,,,398.2,,,5.66,C,8,
130,Polyisobutylene,Homopolymer,Benzene,C6H6,,,,,,53000,,,,,,398.2,16,,,,26,5.85
130,Polyisobutylene,Homopolymer,Benzene,C6H6,,,,,,53000,,,,,,423.2,,,5.56,C,8,
130,Polyisobutylene,Homopolymer,Cyclohexane,C6H12,,40000,,,,,,,,,33,298.2,338.8,,,,63,6.11
131,Polyisobutylene,Homopolymer,Cyclohexane,C6H12,a,860000,,,,,,,,,,313.1,229.48,,,,84,4.81
131,Polyisobutylene,Homopolymer,Cyclohexane,C6H12,a,860000,,,,,,,,,,323.1,157.97,,,,84,4.78
131,Polyisobutylene,Homopolymer,Cyclohexane,C6H12,,,,,,53000,,,,,,323.2,,,4.56,C,8,
131,Polyisobutylene,Homopolymer,Cyclohexane,C6H12,,,,,,53000,,,,,,323.2,126,,,,26,5.98
131,Polyisobutylene,Homopolymer,Cyclohexane,C6H12,,,,,,53000,,,,,,348.2,,,4.64,C,8,
131,Polyisobutylene,Homopolymer,Cyclohexane,C6H12,,,,,,53000,,,,,,348.2,67,,,,26,4.9
131,Polyisobutylene,Homopolymer,Cyclohexane,C6H12,,,,,,53000,,,,,,373.2,,,4.72,C,8,
131,Polyisobutylene,Homopolymer,Cyclohexane,C6H12,,,,,,53000,,,,,,373.2,33.1,,,,26,4.95
131,Polyisobutylene,Homopolymer,Cyclohexane,C6H12,,,,,,53000,,,,,,398.2,,,4.8,C,8,
131,Polyisobutylene,Homopolymer,Cyclohexane,C6H12,,,,,,53000,,,,,,398.2,18.1,,,,26,5.04
131,Polyisobutylene,Homopolymer,Cyclohexane,C6H12,,,,,,53000,,,,,,423.2,,,4.88,C,8,
131,Polyisobutylene,Homopolymer,Hexane,C6H14,,40000,,,,,,,,,33,298.2,184,,,,63,7.16
131,Polyisobutylene,Homopolymer,Hexane,C6H14,,,,,,53000,,,,,,323.2,,,6.29,,8,
131,Polyisobutylene,Homopolymer,Hexane,C6H14,,,,,,53000,,,,,,323.2,62.7,,,,26,8.03
131,Polyisobutylene,Homopolymer,Hexane,C6H14,,,,,,53000,,,,,,348.2,,,6.44,C,8,
131,Polyisobutylene,Homopolymer,Hexane,C6H14,,,,,,53000,,,,,,348.2,33.4,,,,26,6.86
131,Polyisobutylene,Homopolymer,Hexane,C6H14,,,,,,53000,,,,,,373.2,,,6.58,,8,
131,Polyisobutylene,Homopolymer,Hexane,C6H14,,,,,,53000,,,,,,373.2,16.8,,,,26,7.11
131,Polyisobutylene,Homopolymer,Hexane,C6H14,,,,,,53000,,,,,,398.2,,,6.72,,8,
131,Polyisobutylene,Homopolymer,Hexane,C6H14,,,,,,53000,,,,,,398.2,9.3,,,,26,7.42
131,Polyisobutylene,Homopolymer,Hexane,C6H14,,,,,,53000,,,,,,423.2,,,6.86,C,8,
131,Polyisobutylene,Homopolymer,Toluene,C7H8,,40000,,,,,,,,,33,298.2,1062.1,,,,63,6.15
131,Polyisobutylene,Homopolymer,Toluene,C7H8,,,,,,53000,,,,,,323.2,,,5.3,C,8,
131,Polyisobutylene,Homopolymer,Toluene,C7H8,,,,,,53000,,,,,,348.2,,,5.21,C,8,
131,Polyisobutylene,Homopolymer,Toluene,C7H8,,,,,,53000,,,,,,373.2,,,5.12,C,8,
132,Polyisobutylene,Homopolymer,Toluene,C7H8,,,,,,53000,,,,,,398.2,,,5.01,C,8,
132,Polyisobutylene,Homopolymer,Toluene,C7H8,,,,,,53000,,,,,,423.2,,,4.91,C,8,
132,Polyisobutylene,Homopolymer,Heptane,C7H16,,40000,,,,,,,,,33,298.2,575.3,,,,63,6.54
132,Polyisobutylene,Homopolymer,Octane,C8H18,,40000,,,,,,,,,33,298.2,1781.1,,,,63,5.98
133,Polyisoprene,Homopolymer,"Methane, tetrachloro",CCl4,,10800,,11988,,,,,,,,328,171.612,,,,99,1.78
133,Polyisoprene,Homopolymer,"Methane, trichloro",CHCl3,,10800,,11988,,,,,,,,328,112.258,,,,99,2.13
133,Polyisoprene,Homopolymer,"Methane, dichloro",CH2Cl2,,10800,,11988,,,,,,,,328,43.08,,,,99,3.85
133,Polyisoprene,Homopolymer,Methanol,CH4O,,10800,,11988,,,,,,,,328,10.056,,,,99,106
133,Polyisoprene,Homopolymer,"Acetic acid, nitrile",C2H3N,,10800,,11988,,,,,,,,328,20.691,,,,99,69
133,Polyisoprene,Homopolymer,"Ethane, 1,2-dichloro",C2H4Cl2,,10800,,11988,,,,,,,,328,145.673,,,,99,4.25
133,Polyisoprene,Homopolymer,Acetic acid,C2H4O2,,10800,,11988,,,,,,,,328,,,37.934,U,99,
133,Polyisoprene,Homopolymer,"1,2-Ethanediol",C2H6O2,,10800,,11988,,,,,,,,328,234.826,,,,99,1161
133,Polyisoprene,Homopolymer,2-Propanone,C3H6O,,10800,,11988,,,,,,,,328,24.342,,,,99,17.4
133,Polyisoprene,Homopolymer,"Formic acid, amide, N,N-dimethyl",C3H7NO,,10800,,11988,,,,,,,,328,412.227,,,,99,25.1
134,Polyisoprene,Homopolymer,2-Propanol,C3H8O,,10800,,11988,,,,,,,,328,24.876,,,,99,50.8
134,Polyisoprene,Homopolymer,2-Butanone,C4H8O,,10800,,11988,,,,,,,,328,64.963,,,,99,11.5
134,Polyisoprene,Homopolymer,"Furane, tetrahydro",C4H8O,,10800,,11988,,,,,,,,328,105.965,,,,99,4.38
134,Polyisoprene,Homopolymer,"Acetic acid, ethyl ester",C4H8O2,,10800,,11988,,,,,,,,328,77.971,,,,99,
134,Polyisoprene,Homopolymer,"1,4-Dioxane",C4H8O2,,10800,,11988,,,,,,,,328,219.384,,,,99,6.08
134,Polyisoprene,Homopolymer,1-Butanol,C4H10O,,10800,,11988,,,,,,,,328,138.443,,,,99,36.6
134,Polyisoprene,Homopolymer,"Butane, 2-methyl",C5H12,,126000,,,,,,,,,34,303.2,,0.57,,C,27,
134,Polyisoprene,Homopolymer,Pentane,C5H12,,126000,,,,,,,,,34,303.2,,0.52,,C,27,
134,Polyisoprene,Homopolymer,Pentane,C5H12,,,,,,,,,,,,298.2,65.1,,,,22,7.33
134,Polyisoprene,Homopolymer,Pentane,C5H12,,,,,,,,,,,,313.2,40.83,,,,22,7
134,Polyisoprene,Homopolymer,Pentane,C5H12,,,,,,,,,,,,328.2,25.96,,,,22,7
134,Polyisoprene,Homopolymer,Benzene,C6H6,,10800,,11988,,,,,,,,328,155.67,,,,99,4.4
134,Polyisoprene,Homopolymer,Benzene,C6H6,,126000,,,,,,,,,34,303.2,,0.41,,C,27,
135,Polyisoprene,Homopolymer,Benzene,C6H6,,,,,,460000,,,,,35,298.2,533,,,,78,4.35
135,Polyisoprene,Homopolymer,Benzene,C6H6,,,,,,460000,,,,,35,308.2,342,,,,78,4.36
135,Polyisoprene,Homopolymer,Benzene,C6H6,,,,,,460000,,,,,35,318.2,234,,,,78,4.24
135,Polyisoprene,Homopolymer,Benzene,C6H6,,,,,,,,,,,,298.2,511.2,,,,22,4.54
135,Polyisoprene,Homopolymer,Benzene,C6H6,,,,,,,,,,,,313.2,270.2,,,,22,4.48
135,Polyisoprene,Homopolymer,Benzene,C6H6,,,,,,,,,,,,328.2,153.4,,,,22,4.44
135,Polyisoprene,Homopolymer,Aniline,C6H7N,,10800,,11988,,,,,,,,328,2570.904,,,,99,16.9
135,Polyisoprene,Homopolymer,Cyclohexanone,C6H10O,,10800,,11988,,,,,,,,328,1085.16,,,,99,7.4
135,Polyisoprene,Homopolymer,Cyclohexane,C6H12,,10800,,11988,,,,,,,,328,146.513,,,,99,4.33
135,Polyisoprene,Homopolymer,Cyclohexane,C6H12,,10800,,11988,,,,,,,,328,148.107,,,,99,4.28
135,Polyisoprene,Homopolymer,Cyclohexane,C6H12,,126000,,,,,,,,,34,303.2,,0.29,,C,27,
135,Polyisoprene,Homopolymer,"2-Pentanone, 4-methyl",C6H12O,,10800,,11988,,,,,,,,328,238.173,,,,99,8.26
135,Polyisoprene,Homopolymer,Hexane,C6H14,,10800,,11988,,,,,,,,328,67.138,,,,99,6.36
135,Polyisoprene,Homopolymer,Hexane,C6H14,,126000,,,,,,,,,34,303.2,,0.5,,C,27,
135,Polyisoprene,Homopolymer,Hexane,C6H14,,,,,,,,,,,,298.2,204.7,,,,22,6.43
135,Polyisoprene,Homopolymer,Hexane,C6H14,,,,,,,,,,,,313.2,122.6,,,,22,5.89
135,Polyisoprene,Homopolymer,Hexane,C6H14,,,,,,,,,,,,328.2,65.83,,,,22,6.45
136,Polyisoprene,Homopolymer,"Pentane, 2-methyl",C6H14,,,,,,,,,,,,298.2,142.7,,,,22,6.7
136,Polyisoprene,Homopolymer,"Pentane, 2-methyl",C6H14,,,,,,,,,,,,313.2,81.67,,,,22,6.59
136,Polyisoprene,Homopolymer,"Pentane, 2-methyl",C6H14,,,,,,,,,,,,328.2,48.94,,,,22,6.61
136,Polyisoprene,Homopolymer,Benzaldehyde,C7H6O,,10800,,11988,,,,,,,,328,,,8.991,C,99,
136,Polyisoprene,Homopolymer,Toluene,C7H8,,10800,,11988,,,,,,,,328,413.11,,,,99,4.02
136,Polyisoprene,Homopolymer,Toluene,C7H8,,,,,,,,,,,,298.2,1587,,,,22,4.12
136,Polyisoprene,Homopolymer,Toluene,C7H8,,,,,,,,,,,,313.2,776.8,,,,22,4.06
136,Polyisoprene,Homopolymer,Toluene,C7H8,,,,,,,,,,,,328.2,404.6,,,,22,4.08
136,Polyisoprene,Homopolymer,Benzyl alcohol,C7H8O,,10800,,11988,,,,,,,,328,,,35.845,C,99,
136,Polyisoprene,Homopolymer,Heptane,C7H16,,,,,,,,,,,,298.2,618.7,,,,22,6.08
136,Polyisoprene,Homopolymer,Heptane,C7H16,,,,,,,,,,,,313.2,309,,,,22,6.03
136,Polyisoprene,Homopolymer,Heptane,C7H16,,,,,,,,,,,,328.2,164.9,,,,22,6.08
136,Polyisoprene,Homopolymer,"Hexane, 2-methyl",C7H16,,,,,,,,,,,,298.2,419.3,,,,22,6.2
136,Polyisoprene,Homopolymer,"Hexane, 2-methyl",C7H16,,,,,,,,,,,,313.2,217.8,,,,22,6.12
136,Polyisoprene,Homopolymer,"Hexane, 2-methyl",C7H16,,,,,,,,,,,,328.2,119.6,,,,22,6.17
136,Polyisoprene,Homopolymer,"Benzene, 1,4-dimethyl",C8H10,,10800,,11988,,,,,,,,328,,,3.611,C,99,
136,Polyisoprene,Homopolymer,"Benzene, 1,4-dimethyl",C8H10,,,,,,,,,,,,298.2,4792,,,,22,
137,Polyisoprene,Homopolymer,"Benzene, 1,4-dimethyl",C8H10,,,,,,,,,,,,313.2,2131,,,,22,
137,Polyisoprene,Homopolymer,"Benzene, 1,4-dimethyl",C8H10,,,,,,,,,,,,328.2,1021,,,,22,
137,Polyisoprene,Homopolymer,"Benzene, ethyl",C8H10,,10800,,11988,,,,,,,,328,934.982,,,,99,3.91
137,Polyisoprene,Homopolymer,"Benzene, ethyl",C8H10,,126000,,,,,,,,,34,303.2,,0.29,,C,27,
137,Polyisoprene,Homopolymer,"Benzene, ethyl",C8H10,,,,,,,,,,,,298.2,4164,,,,22,
137,Polyisoprene,Homopolymer,"Benzene, ethyl",C8H10,,,,,,,,,,,,313.2,1880,,,,22,3.96
137,Polyisoprene,Homopolymer,"Benzene, ethyl",C8H10,,,,,,,,,,,,328.2,923.1,,,,22,3.93
137,Polyisoprene,Homopolymer,"Heptane, 2-methyl",C8H18,,,,,,,,,,,,298.2,1236,,,,22,5.87
137,Polyisoprene,Homopolymer,"Heptane, 2-methyl",C8H18,,,,,,,,,,,,313.2,583.7,,,,22,5.82
137,Polyisoprene,Homopolymer,"Heptane, 2-methyl",C8H18,,,,,,,,,,,,328.2,297.8,,,,22,5.83
137,Polyisoprene,Homopolymer,Octane,C8H18,,126000,,,,,,,,,34,303.2,,0.46,,C,27,
137,Polyisoprene,Homopolymer,Octane,C8H18,,,,,,,,,,,,298.2,1852,,,,22,5.75
137,Polyisoprene,Homopolymer,Octane,C8H18,,,,,,,,,,,,313.2,844.8,,,,22,5.75
137,Polyisoprene,Homopolymer,Octane,C8H18,,,,,,,,,,,,328.2,415.9,,,,22,5.79
137,Polyisoprene,Homopolymer,"Pentane, 2,2,4-trimethyl",C8H18,,126000,,,,,,,,,34,303.2,,0.46,,C,27,
137,Polyisoprene,Homopolymer,"Pentane, 2,2,4-trimethyl",C8H18,,,,,,,,,,,,298.2,517,,,,22,5.9
137,Polyisoprene,Homopolymer,"Pentane, 2,2,4-trimethyl",C8H18,,,,,,,,,,,,313.2,268.8,,,,22,5.78
137,Polyisoprene,Homopolymer,"Pentane, 2,2,4-trimethyl",C8H18,,,,,,,,,,,,328.2,146.9,,,,22,5.82
137,Polyisoprene,Homopolymer,"Benzene, tert-butyl",C10H14,,126000,,,,,,,,,34,303.2,,0.22,,C,27,
138,Polyisoprene,Homopolymer,Decane,C10H22,,126000,,,,,,,,,34,303.2,,0.43,,C,27,
139,Poly(DL-lactide),Homopolymer,"Methane, tetrachloro",CCl4,,26000,,63000,,,,,,,36,393.2,9.1,,,,37,5.6
139,Poly(DL-lactide),Homopolymer,"Methane, trichloro",CHCl3,,26000,,63000,,,,,,,36,393.2,14.3,,,,37,2.97
139,Poly(DL-lactide),Homopolymer,"Methane, dichloro",CH2Cl2,,26000,,63000,,,,,,,36,393.2,9.1,,,,37,3.68
139,Poly(DL-lactide),Homopolymer,2-Propanone,C3H6O,,26000,,63000,,,,,,,36,393.2,8.9,,,,37,8.37
139,Poly(DL-lactide),Homopolymer,2-Butanone,C4H8O,,26000,,63000,,,,,,,36,393.2,13.9,,,,37,7.9
139,Poly(DL-lactide),Homopolymer,"Acetic acid, ethyl ester",C4H8O2,,26000,,63000,,,,,,,36,393.2,12.4,,,,37,6.68
139,Poly(DL-lactide),Homopolymer,Pentane,C5H12,,26000,,63000,,,,,,,36,393.2,1.4,,,,37,30.5
139,Poly(DL-lactide),Homopolymer,Benzene,C6H6,,26000,,63000,,,,,,,36,393.2,15.2,,,,37,6.89
139,Poly(DL-lactide),Homopolymer,Hexane,C6H14,,26000,,63000,,,,,,,36,393.2,1.8,,,,37,42.5
139,Poly(DL-lactide),Homopolymer,Heptane,C7H16,,26000,,63000,,,,,,,36,393.2,3.4,,,,37,39.7
140,Poly(methyl acrylate),Homopolymer,"Methane, tetrachloro",CCl4,,,,,,381000,,,,291.15,,349.2,39.03,,,,35,3.98
140,Poly(methyl acrylate),Homopolymer,"Methane, tetrachloro",CCl4,,,,,,381000,,,,291.15,,398.2,13.19,,,,35,3.48
140,Poly(methyl acrylate),Homopolymer,"Methane, trichloro",CHCl3,,90000,,,,,,,,,,393.2,13.5,,,,69,3.14
140,Poly(methyl acrylate),Homopolymer,"Methane, trichloro",CHCl3,,,,,,381000,,,,291.15,,349.2,77.78,,,,35,1.6
140,Poly(methyl acrylate),Homopolymer,"Methane, trichloro",CHCl3,,,,,,381000,,,,291.15,,398.2,20.57,,,,35,1.86
140,Poly(methyl acrylate),Homopolymer,"Methane, trichloro",CHCl3,,,,,,705940,,,,,,353.2,,-0.23,,C,28,
140,Poly(methyl acrylate),Homopolymer,"Methane, trichloro",CHCl3,,,,,,705940,,,,,,373.2,,-0.16,,C,28,
140,Poly(methyl acrylate),Homopolymer,"Methane, dichloro",CH2Cl2,,,,,,381000,,,,291.15,,349.2,43.29,,,,35,2.09
140,Poly(methyl acrylate),Homopolymer,"Methane, dichloro",CH2Cl2,,,,,,381000,,,,291.15,,398.2,13.54,,,,35,2.25
140,Poly(methyl acrylate),Homopolymer,Methanol,CH4O,,,,,,381000,,,,291.15,,349.2,33.88,,,,35,13.9
140,Poly(methyl acrylate),Homopolymer,Methanol,CH4O,,,,,,381000,,,,291.15,,398.2,10.11,,,,35,10.6
140,Poly(methyl acrylate),Homopolymer,"Ethene, trichloro",C2HCl3,,,,,,381000,,,,291.15,,349.2,78.63,,,,35,3.16
140,Poly(methyl acrylate),Homopolymer,"Ethene, trichloro",C2HCl3,,,,,,381000,,,,291.15,,398.2,21.35,,,,35,3.04
140,Poly(methyl acrylate),Homopolymer,"Acetic acid, nitrile",C2H3N,,90000,,,,,,,,,,393.2,15.8,,,,69,13.7
140,Poly(methyl acrylate),Homopolymer,"Ethane, 1,2-dichloro",C2H4Cl2,,,,,,705940,,,,,,353.2,,0.08,,C,28,
140,Poly(methyl acrylate),Homopolymer,"Ethane, 1,2-dichloro",C2H4Cl2,,,,,,705940,,,,,,373.2,,0.09,,C,28,
141,Poly(methyl acrylate),Homopolymer,Ethanol,C2H6O,,,,,,381000,,,,291.15,,349.2,44.93,,,,35,12.3
141,Poly(methyl acrylate),Homopolymer,Ethanol,C2H6O,,,,,,381000,,,,291.15,,398.2,12.06,,,,35,9
141,Poly(methyl acrylate),Homopolymer,Ethanol,C2H6O,,,,,,705940,,,,,,353.2,,1.19,,C,28,
141,Poly(methyl acrylate),Homopolymer,Ethanol,C2H6O,,,,,,705940,,,,,,373.2,,1.09,,C,28,
141,Poly(methyl acrylate),Homopolymer,2-Propanone,C3H6O,,90000,,,,,,,,,,393.2,6.7,,,,69,11.1
141,Poly(methyl acrylate),Homopolymer,2-Propanone,C3H6O,,,,,,381000,,,,291.15,,349.2,35.82,,,,35,6.15
141,Poly(methyl acrylate),Homopolymer,2-Propanone,C3H6O,,,,,,381000,,,,291.15,,398.2,12.7,,,,35,5.29
141,Poly(methyl acrylate),Homopolymer,2-Propanone,C3H6O,,,,,,705940,,,,,,353.2,,0.54,,C,28,
141,Poly(methyl acrylate),Homopolymer,2-Propanone,C3H6O,,,,,,705940,,,,,,373.2,,0.61,,C,28,
141,Poly(methyl acrylate),Homopolymer,1-Propanol,C3H8O,,90000,,,,,,,,,,393.2,14.3,,,,69,12.6
141,Poly(methyl acrylate),Homopolymer,2-Propanol,C3H8O,,,,,,381000,,,,291.15,,349.2,48.2,,,,35,10.4
141,Poly(methyl acrylate),Homopolymer,2-Propanol,C3H8O,,,,,,381000,,,,291.15,,398.2,13.36,,,,35,7.2
141,Poly(methyl acrylate),Homopolymer,2-Butanone,C4H8O,,90000,,,,,,,,,,393.2,11.5,,,,69,9.55
141,Poly(methyl acrylate),Homopolymer,2-Butanone,C4H8O,,,,,,381000,,,,291.15,,349.2,62.11,,,,35,5.83
141,Poly(methyl acrylate),Homopolymer,2-Butanone,C4H8O,,,,,,381000,,,,291.15,,398.2,18.35,,,,35,5.34
141,Poly(methyl acrylate),Homopolymer,2-Butanone,C4H8O,,,,,,705940,,,,,,353.2,,0.52,,C,28,
141,Poly(methyl acrylate),Homopolymer,2-Butanone,C4H8O,,,,,,705940,,,,,,373.2,,0.48,,C,28,
141,Poly(methyl acrylate),Homopolymer,"Furane, tetrahydro",C4H8O,,,,,,381000,,,,291.15,,349.2,45.87,,,,35,5.15
141,Poly(methyl acrylate),Homopolymer,"Furane, tetrahydro",C4H8O,,,,,,381000,,,,291.15,,398.2,14.76,,,,35,4.72
142,Poly(methyl acrylate),Homopolymer,"Acetic acid, ethyl ester",C4H8O2,,90000,,,,,,,,,,393.2,9.1,,,,69,9.11