Page,Solute,Solute_type,Solvent,Solvent_formula,MN_symbol,MN,MW_symbol,MW,MV_symbol,MV,per composition,per substitution,Tg_symbol,Tg (K),Note,T (K),Vg (cm3/g),chi_inf,omega_inf,U/C,Ref,calc_omega_inf
86,Polyethylene,Homopolymer,"Benzene, 1,3,5-trimethyl",C9H12,,,,82000,,,,,,,13,418.3,92.3,,,,47,3.56
86,Polyethylene,Homopolymer,"Benzene, 1,3,5-trimethyl",C9H12,,,,105000,,,,,,,14,418.6,88.17,,,,47,3.7
86,Polyethylene,Homopolymer,"Benzene, 1,3,5-trimethyl",C9H12,,,,105000,,,,,,,14,426.5,72,,,,47,3.65
86,Polyethylene,Homopolymer,1-Nonene,C9H18,,,,,,,,,,,12,323.2,446.3,,,,65,14
86,Polyethylene,Homopolymer,1-Nonene,C9H18,,,,,,,,,,,12,348.2,174.77,,,,65,11.4
86,Polyethylene,Homopolymer,1-Nonene,C9H18,,,,,,,,,,,12,373.2,99.4,,,,65,7.7
86,Polyethylene,Homopolymer,1-Nonene,C9H18,,,,,,,,,,,12,398.2,67.45,,,,65,5.1
86,Polyethylene,Homopolymer,1-Nonene,C9H18,,,,,,,,,,,12,423.2,33.47,,,,65,5.22
86,Polyethylene,Homopolymer,1-Nonene,C9H18,,,,,,,,,,,12,448.2,17.81,,,,65,5.51
86,Polyethylene,Homopolymer,"Hexane, 2,2,4-trimethyl",C9H20,,,,82000,,,,,,,13,393.2,49.44,,,,47,
86,Polyethylene,Homopolymer,"Hexane, 2,2,4-trimethyl",C9H20,,,,82000,,,,,,,13,418.3,26.67,,,,47,
86,Polyethylene,Homopolymer,"Hexane, 2,2,4-trimethyl",C9H20,,,,105000,,,,,,,14,418.6,24.43,,,,47,
86,Polyethylene,Homopolymer,"Hexane, 2,2,4-trimethyl",C9H20,,,,105000,,,,,,,14,425.8,21.13,,,,47,
86,Polyethylene,Homopolymer,Nonane,C9H20,,,,82000,,,,,,,13,393.2,99.6,,,,47,4.45
86,Polyethylene,Homopolymer,Nonane,C9H20,,,,82000,,,,,,,13,418.3,47.43,,,,47,4.52
86,Polyethylene,Homopolymer,Nonane,C9H20,,,,105000,,,,,,,14,418.6,44.24,,,,47,4.81
86,Polyethylene,Homopolymer,Nonane,C9H20,,,,105000,,,,,,,14,425.8,37.26,,,,47,4.74
86,Polyethylene,Homopolymer,Nonane,C9H20,,,,,,,,,,,8,408.2,,,4.55,C,53,
86,Polyethylene,Homopolymer,Nonane,C9H20,,,,,,,,,,,12,323.2,542.19,,,,65,13.6
87,Polyethylene,Homopolymer,Nonane,C9H20,,,,,,,,,,,12,348.2,198,,,,65,11.6
87,Polyethylene,Homopolymer,Nonane,C9H20,,,,,,,,,,,12,373.2,112.21,,,,65,7.72
87,Polyethylene,Homopolymer,Nonane,C9H20,,,,,,,,,,,12,398.2,74.04,,,,65,5.13
87,Polyethylene,Homopolymer,Nonane,C9H20,,,,,,,,,,,12,423.2,37.73,,,,65,5
87,Polyethylene,Homopolymer,Nonane,C9H20,,,,,,,,,,,12,448.2,19.17,,,,65,5.42
87,Polyethylene,Homopolymer,Tetralin,C10H12,,,,82000,,,,,,,13,393.2,700.7,,,,47,3.27
87,Polyethylene,Homopolymer,Tetralin,C10H12,,,,82000,,,,,,,13,418.3,294.6,,,,47,3.24
87,Polyethylene,Homopolymer,Tetralin,C10H12,,,,105000,,,,,,,14,418.6,279.6,,,,47,3.38
87,Polyethylene,Homopolymer,Tetralin,C10H12,,,,105000,,,,,,,14,426.5,222.3,,,,47,3.32
87,Polyethylene,Homopolymer,"Benzene, butyl",C10H14,,,,,,,,,,,12,323.2,2172.69,,,,65,
87,Polyethylene,Homopolymer,"Benzene, butyl",C10H14,,,,,,,,,,,12,348.2,729.39,,,,65,9.38
87,Polyethylene,Homopolymer,"Benzene, butyl",C10H14,,,,,,,,,,,12,373.2,380.05,,,,65,6.02
87,Polyethylene,Homopolymer,"Benzene, butyl",C10H14,,,,,,,,,,,12,398.2,221.75,,,,65,4.1
87,Polyethylene,Homopolymer,"Benzene, butyl",C10H14,,,,,,,,,,,12,423.2,100.61,,,,65,4.13
87,Polyethylene,Homopolymer,"Benzene, butyl",C10H14,,,,,,,,,,,12,448.2,49.15,,,,65,4.35
87,Polyethylene,Homopolymer,Decalin (cis),C10H18,,,,82000,,,,,,,13,393.2,540.1,,,,47,2.61
87,Polyethylene,Homopolymer,Decalin (cis),C10H18,,,,82000,,,,,,,13,418.2,235.8,,,,47,2.67
87,Polyethylene,Homopolymer,Decalin (cis),C10H18,,,,105000,,,,,,,14,418.6,222.2,,,,47,2.81
87,Polyethylene,Homopolymer,Decalin (cis),C10H18,,,,105000,,,,,,,14,426.5,178.8,,,,47,2.78
87,Polyethylene,Homopolymer,Decalin (trans),C10H18,,,,82000,,,,,,,13,393.2,408.4,,,,47,2.58
87,Polyethylene,Homopolymer,Decalin (trans),C10H18,,,,82000,,,,,,,13,418.3,185.1,,,,47,2.64
88,Polyethylene,Homopolymer,Decalin (trans),C10H18,,,,105000,,,,,,,14,418.6,173.7,,,,47,2.79
88,Polyethylene,Homopolymer,Decalin (trans),C10H18,,,,105000,,,,,,,14,426.5,140.6,,,,47,2.77
88,Polyethylene,Homopolymer,Decane,C10H22,,,,82000,,,,,,,13,393.2,190,,,,47,4.32
88,Polyethylene,Homopolymer,Decane,C10H22,,,,82000,,,,,,,13,418.3,84.37,,,,47,4.33
88,Polyethylene,Homopolymer,Decane,C10H22,,7400,,92200,,,,,,,15,418.6,55.8,,,,30,6.49
88,Polyethylene,Homopolymer,Decane,C10H22,,7400,,92200,,,,,,,15,426.5,43.94,,,,30,6.56
88,Polyethylene,Homopolymer,Decane,C10H22,,,,105000,,,,,,,14,418.6,78.9,,,,47,4.59
88,Polyethylene,Homopolymer,Decane,C10H22,,,,105000,,,,,,,14,426.5,63.43,,,,47,4.54
88,Polyethylene,Homopolymer,Decane,C10H22,,,,,,,,,,,8,408.2,,,4.46,C,53,
88,Polyethylene,Homopolymer,Decane,C10H22,,,,,,,,,,,12,323.2,1434.85,,,,65,12.7
88,Polyethylene,Homopolymer,Decane,C10H22,,,,,,,,,,,12,348.2,452.9,,,,65,11.2
88,Polyethylene,Homopolymer,Decane,C10H22,,,,,,,,,,,12,373.2,233.71,,,,65,7.38
88,Polyethylene,Homopolymer,Decane,C10H22,,,,,,,,,,,12,398.2,139.22,,,,65,4.96
88,Polyethylene,Homopolymer,Decane,C10H22,,,,,,,,,,,12,423.2,63.97,,,,65,4.95
88,Polyethylene,Homopolymer,Decane,C10H22,,,,,,,,,,,12,448.2,31.26,,,,65,5.19
88,Polyethylene,Homopolymer,Dodecane,C12H26,,,,82000,,,,,,,13,393.2,684.4,,,,47,4.02
88,Polyethylene,Homopolymer,Dodecane,C12H26,,,,82000,,,,,,,13,418.3,257.5,,,,47,4.11
88,Polyethylene,Homopolymer,Dodecane,C12H26,,7400,,92200,,,,,,,15,418.6,172.2,,,,30,6.07
88,Polyethylene,Homopolymer,Dodecane,C12H26,,7400,,92200,,,,,,,15,426.5,130,,,,30,6.14
88,Polyethylene,Homopolymer,Dodecane,C12H26,,,,105000,,,,,,,14,418.6,242.5,,,,47,4.31
88,Polyethylene,Homopolymer,Dodecane,C12H26,,,,105000,,,,,,,14,426.5,187.7,,,,47,4.25
88,Polyethylene,Homopolymer,Sulfurdioxide,SO2,,,,,,,,,,,9,398.2,1.3,,,,15,8.46
88,Polyethylene,Homopolymer,Sulfurdioxide,SO2,,,,,,,,,,,9,423.2,1.06,,,,15,7.85
89,Polyethylene,Homopolymer,Sulfurdioxide,SO2,,,,,,,,,,,9,448.2,0.906,,,,15,
89,Polyethylene,Homopolymer,Sulfurdioxide,SO2,,,,,,,,,,,9,473.2,0.781,,,,15,
89,Polyethylene,Homopolymer,Sulfurdioxide,SO2,,,,,,,,,,,9,498.2,0.687,,,,15,
89,Polyethylene,Homopolymer,Sulfurdioxide,SO2,,,,,,,,,,,9,523.2,0.621,,,,15,
90,Poly(ethylene adipate),Homopolymer,"Methane, tetrachloro",CCl4,,,,2600,,,,,,,16,393.2,9.5,,,,37,5.37
90,Poly(ethylene adipate),Homopolymer,"Methane, trichloro",CHCl3,,,,2600,,,,,,,16,393.2,15.3,,,,37,2.77
90,Poly(ethylene adipate),Homopolymer,"Methane, dichloro",CH2Cl2,,,,2600,,,,,,,16,393.2,9.7,,,,37,3.45
90,Poly(ethylene adipate),Homopolymer,2-Propanone,C3H6O,,,,2600,,,,,,,16,393.2,9.2,,,,37,8.1
90,Poly(ethylene adipate),Homopolymer,2-Butanone,C4H8O,,,,2600,,,,,,,16,393.2,14.4,,,,37,7.62
90,Poly(ethylene adipate),Homopolymer,"Acetic acid, ethyl ester",C4H8O2,,,,2600,,,,,,,16,393.2,11.7,,,,37,7.08
90,Poly(ethylene adipate),Homopolymer,Pentane,C5H12,,,,2600,,,,,,,16,393.2,1.4,,,,37,30.5
90,Poly(ethylene adipate),Homopolymer,Benzene,C6H6,,,,2600,,,,,,,16,393.2,14.9,,,,37,7.03
90,Poly(ethylene adipate),Homopolymer,Hexane,C6H14,,,,2600,,,,,,,16,393.2,1.9,,,,37,40.2
90,Poly(ethylene adipate),Homopolymer,Heptane,C7H16,,,,2600,,,,,,,16,393.2,3.1,,,,37,43.5
91,"Polyethylene, low-density",Homopolymer,Benzene,C6H6,,35000,,235000,,,,,,,86,383.2,,,4.39,C,7,
91,"Polyethylene, low-density",Homopolymer,Benzene,C6H6,,35000,,235000,,,,,,,86,398.2,,,4.32,C,7,
91,"Polyethylene, low-density",Homopolymer,Benzene,C6H6,,35000,,235000,,,,,,,86,423.2,,,4.25,C,7,
91,"Polyethylene, low-density",Homopolymer,Benzene,C6H6,,35000,,235000,,,,,,,86,448.2,,,4.27,C,7,
91,"Polyethylene, low-density",Homopolymer,Benzene,C6H6,,35000,,235000,,,,,,,86,473.2,,,4.13,C,7,
91,"Polyethylene, low-density",Homopolymer,Cyclohexane,C6H12,,35000,,235000,,,,,,,86,383.2,,,3.88,C,7,
91,"Polyethylene, low-density",Homopolymer,Cyclohexane,C6H12,,35000,,235000,,,,,,,86,398.2,,,3.86,C,7,
91,"Polyethylene, low-density",Homopolymer,Cyclohexane,C6H12,,35000,,235000,,,,,,,86,423.2,,,3.95,C,7,
91,"Polyethylene, low-density",Homopolymer,Cyclohexane,C6H12,,35000,,235000,,,,,,,86,448.2,,,4.04,C,7,
91,"Polyethylene, low-density",Homopolymer,Cyclohexane,C6H12,,35000,,235000,,,,,,,86,473.2,,,4.04,C,7,
91,"Polyethylene, low-density",Homopolymer,Hexane,C6H14,,35000,,235000,,,,,,,86,383.2,,,5.65,C,7,
91,"Polyethylene, low-density",Homopolymer,Hexane,C6H14,,35000,,235000,,,,,,,86,398.2,,,5.73,C,7,
91,"Polyethylene, low-density",Homopolymer,Hexane,C6H14,,35000,,235000,,,,,,,86,423.2,,,5.91,C,7,
91,"Polyethylene, low-density",Homopolymer,Hexane,C6H14,,35000,,235000,,,,,,,86,448.2,,,5.97,C,7,
91,"Polyethylene, low-density",Homopolymer,Hexane,C6H14,,35000,,235000,,,,,,,86,473.2,,,6.1,C,7,
91,"Polyethylene, low-density",Homopolymer,Toluene,C7H8,,35000,,235000,,,,,,,86,383.2,,,3.95,C,7,
91,"Polyethylene, low-density",Homopolymer,Toluene,C7H8,,35000,,235000,,,,,,,86,398.2,,,3.94,C,7,
91,"Polyethylene, low-density",Homopolymer,Toluene,C7H8,,35000,,235000,,,,,,,86,423.2,,,3.94,C,7,
91,"Polyethylene, low-density",Homopolymer,Toluene,C7H8,,35000,,235000,,,,,,,86,448.2,,,3.91,C,7,
91,"Polyethylene, low-density",Homopolymer,Toluene,C7H8,,35000,,235000,,,,,,,86,473.2,,,3.87,C,7,
91,"Polyethylene, low-density",Homopolymer,Heptane,C7H16,,35000,,235000,,,,,,,86,383.2,,,5.08,C,7,
92,"Polyethylene, low-density",Homopolymer,Heptane,C7H16,,35000,,235000,,,,,,,86,398.2,,,5.1,C,7,
92,"Polyethylene, low-density",Homopolymer,Heptane,C7H16,,35000,,235000,,,,,,,86,423.2,,,5.26,C,7,
92,"Polyethylene, low-density",Homopolymer,Heptane,C7H16,,35000,,235000,,,,,,,86,448.2,,,5.37,C,7,
92,"Polyethylene, low-density",Homopolymer,Heptane,C7H16,,35000,,235000,,,,,,,86,473.2,,,5.4,C,7,
92,"Polyethylene, low-density",Homopolymer,"Benzene, 1,4-dimethyl",C8H10,,35000,,235000,,,,,,,86,383.2,,,3.73,C,7,
92,"Polyethylene, low-density",Homopolymer,"Benzene, 1,4-dimethyl",C8H10,,35000,,235000,,,,,,,86,398.2,,,3.71,C,7,
92,"Polyethylene, low-density",Homopolymer,"Benzene, 1,4-dimethyl",C8H10,,35000,,235000,,,,,,,86,423.2,,,3.76,C,7,
92,"Polyethylene, low-density",Homopolymer,"Benzene, 1,4-dimethyl",C8H10,,35000,,235000,,,,,,,86,448.2,,,3.75,C,7,
92,"Polyethylene, low-density",Homopolymer,"Benzene, 1,4-dimethyl",C8H10,,35000,,235000,,,,,,,86,473.2,,,3.71,C,7,
92,"Polyethylene, low-density",Homopolymer,Octane,C8H18,,35000,,235000,,,,,,,86,383.2,,,4.71,C,7,
92,"Polyethylene, low-density",Homopolymer,Octane,C8H18,,35000,,235000,,,,,,,86,398.2,,,4.74,C,7,
92,"Polyethylene, low-density",Homopolymer,Octane,C8H18,,35000,,235000,,,,,,,86,423.2,,,4.85,C,7,
92,"Polyethylene, low-density",Homopolymer,Octane,C8H18,,35000,,235000,,,,,,,86,448.2,,,4.93,C,7,
92,"Polyethylene, low-density",Homopolymer,Octane,C8H18,,35000,,235000,,,,,,,86,473.2,,,4.94,C,7,
92,"Polyethylene, low-density",Homopolymer,Decalin (trans),C10H18,,35000,,235000,,,,,,,86,383.2,,,2.67,C,7,
92,"Polyethylene, low-density",Homopolymer,Decalin (trans),C10H18,,35000,,235000,,,,,,,86,398.2,,,2.7,C,7,
92,"Polyethylene, low-density",Homopolymer,Decalin (trans),C10H18,,35000,,235000,,,,,,,86,423.2,,,2.77,C,7,
92,"Polyethylene, low-density",Homopolymer,Decalin (trans),C10H18,,35000,,235000,,,,,,,86,448.2,,,2.78,C,7,
92,"Polyethylene, low-density",Homopolymer,Decalin (trans),C10H18,,35000,,235000,,,,,,,86,473.2,,,2.75,C,7,
93,Poly(ethylene oxide),Homopolymer,"Methane, tetrachloro",CCl4,,1000,,,,,,,,,17,343.4,57,,,,96,3.25
93,Poly(ethylene oxide),Homopolymer,"Methane, tetrachloro",CCl4,,1000,,,,,,,,,17,352.4,43.3,,,,96,3.27
93,Poly(ethylene oxide),Homopolymer,"Methane, tetrachloro",CCl4,,,a,4000000,,,,,,,18,343.4,50.84,,,,55,3.64
93,Poly(ethylene oxide),Homopolymer,"Methane, tetrachloro",CCl4,,,a,4000000,,,,,,,18,348.4,41.92,,,,55,3.79
93,Poly(ethylene oxide),Homopolymer,"Methane, tetrachloro",CCl4,,,a,4000000,,,,,,,18,361.4,30.41,,,,55,3.62
93,Poly(ethylene oxide),Homopolymer,"Methane, tetrachloro",CCl4,,,a,4000000,,,,,,,18,375.1,21.21,,,,55,3.65
93,Poly(ethylene oxide),Homopolymer,"Methane, tetrachloro",CCl4,,,a,4000000,,,,,,,18,398.9,13.14,,,,55,3.44
93,Poly(ethylene oxide),Homopolymer,"Methane, tetrachloro",CCl4,,,a,4000000,,,,,,,18,423.7,7.49,,,,55,3.75
93,Poly(ethylene oxide),Homopolymer,"Methane, tetrachloro",CCl4,,,,,,4000000,,,,,19,323.2,89.5,,,,10,4.05
93,Poly(ethylene oxide),Homopolymer,"Methane, tetrachloro",CCl4,,,,,,4000000,,,,,19,348.2,43.5,,,,10,3.68
93,Poly(ethylene oxide),Homopolymer,"Methane, tetrachloro",CCl4,,,,,,4000000,,,,,19,361.2,38.2,,,,10,2.9
93,Poly(ethylene oxide),Homopolymer,"Methane, tetrachloro",CCl4,,,,,,4000000,,,,,19,374.8,26.5,,,,10,2.94
93,Poly(ethylene oxide),Homopolymer,"Methane, tetrachloro",CCl4,,,,,,4000000,,,,,19,398.2,13.8,,,,10,3.32
93,Poly(ethylene oxide),Homopolymer,"Methane, tetrachloro",CCl4,,,,,,4000000,,,,,19,423.2,5.2,,,,10,5.45
93,Poly(ethylene oxide),Homopolymer,"Methane, trichloro",CHCl3,,1000,,,,,,,,,17,343.4,147,,,,96,1
93,Poly(ethylene oxide),Homopolymer,"Methane, trichloro",CHCl3,,1000,,,,,,,,,17,352.4,105,,,,96,1.08
93,Poly(ethylene oxide),Homopolymer,"Methane, trichloro",CHCl3,,10700,,11450,,,,,,,,343.2,162.1,,,,71,0.913
93,Poly(ethylene oxide),Homopolymer,"Methane, trichloro",CHCl3,,10700,,11450,,,,,,,,373.2,57.43,,,,71,1.16
93,Poly(ethylene oxide),Homopolymer,"Methane, trichloro",CHCl3,,10700,,11450,,,,,,,,393.2,31.4,,,,71,1.35
93,Poly(ethylene oxide),Homopolymer,"Methane, trichloro",CHCl3,,,a,4000000,,,,,,,18,343.4,124.03,,,,55,1.19
93,Poly(ethylene oxide),Homopolymer,"Methane, trichloro",CHCl3,,,a,4000000,,,,,,,18,348.4,102.6,,,,55,1.24
93,Poly(ethylene oxide),Homopolymer,"Methane, trichloro",CHCl3,,,a,4000000,,,,,,,18,361.4,67.58,,,,55,1.32
93,Poly(ethylene oxide),Homopolymer,"Methane, trichloro",CHCl3,,,a,4000000,,,,,,,18,375.1,43.91,,,,55,1.45
93,Poly(ethylene oxide),Homopolymer,"Methane, trichloro",CHCl3,,,a,4000000,,,,,,,18,398.9,23.69,,,,55,1.59
93,Poly(ethylene oxide),Homopolymer,"Methane, trichloro",CHCl3,,,a,4000000,,,,,,,18,423.7,12.74,,,,55,1.87
93,Poly(ethylene oxide),Homopolymer,"Methane, trichloro",CHCl3,,,,,,4000000,,,,,19,323.2,261,,,,10,1.08
93,Poly(ethylene oxide),Homopolymer,"Methane, trichloro",CHCl3,,,,,,4000000,,,,,19,348.2,93.8,,,,10,1.36
94,Poly(ethylene oxide),Homopolymer,"Methane, trichloro",CHCl3,,,,,,4000000,,,,,19,361.2,68,,,,10,1.32
94,Poly(ethylene oxide),Homopolymer,"Methane, trichloro",CHCl3,,,,,,4000000,,,,,19,374.8,43.5,,,,10,1.47
94,Poly(ethylene oxide),Homopolymer,"Methane, trichloro",CHCl3,,,,,,4000000,,,,,19,398.2,21.5,,,,10,1.78
94,Poly(ethylene oxide),Homopolymer,"Methane, trichloro",CHCl3,,,,,,4000000,,,,,19,423.2,10.8,,,,10,2.22
94,Poly(ethylene oxide),Homopolymer,"Methane, dichloro",CH2Cl2,,670,,,,,,,,,20,340.5,,,1.46,C,93,
94,Poly(ethylene oxide),Homopolymer,"Methane, dichloro",CH2Cl2,,1400,,,,,,,,,21,340.5,,,1.33,C,93,
94,Poly(ethylene oxide),Homopolymer,"Methane, dichloro",CH2Cl2,,3400,,,,,,,,,22,340.5,,,1.23,C,93,
94,Poly(ethylene oxide),Homopolymer,"Methane, nitro",CH3NO2,,1000,,,,,,,,,17,343.4,384,,,,96,2.82
94,Poly(ethylene oxide),Homopolymer,"Methane, nitro",CH3NO2,,1000,,,,,,,,,17,352.4,264,,,,96,2.97
94,Poly(ethylene oxide),Homopolymer,Methanol,CH4O,,,,300000,,,,,,,,353.2,,,12.72,C,70,
94,Poly(ethylene oxide),Homopolymer,Methanol,CH4O,,,,300000,,,,,,,,373.2,,,12.02,C,70,
94,Poly(ethylene oxide),Homopolymer,Methanol,CH4O,,,,300000,,,,,,,,393.2,,,11.75,C,70,
94,Poly(ethylene oxide),Homopolymer,Methanol,CH4O,,,a,4000000,,,,,,,18,343.4,93.03,,,,55,6.27
94,Poly(ethylene oxide),Homopolymer,Methanol,CH4O,,,a,4000000,,,,,,,18,348.4,76.22,,,,55,6.38
94,Poly(ethylene oxide),Homopolymer,Methanol,CH4O,,,a,4000000,,,,,,,18,361.4,44.35,,,,55,7.02
94,Poly(ethylene oxide),Homopolymer,Methanol,CH4O,,,a,4000000,,,,,,,18,375.1,26.75,,,,55,7.58
94,Poly(ethylene oxide),Homopolymer,Methanol,CH4O,,,a,4000000,,,,,,,18,398.9,14.27,,,,55,7.36
94,Poly(ethylene oxide),Homopolymer,Methanol,CH4O,,,a,4000000,,,,,,,18,423.7,8.15,,,,55,7.18
94,Poly(ethylene oxide),Homopolymer,"Ethene, 1,1-dichloro",C2H2Cl2,,,,,,4000000,,,,,19,323.2,164,,,,10,0.818
94,Poly(ethylene oxide),Homopolymer,"Ethene, 1,1-dichloro",C2H2Cl2,,,,,,4000000,,,,,19,348.2,61.5,,,,10,1.13
94,Poly(ethylene oxide),Homopolymer,"Ethene, 1,1-dichloro",C2H2Cl2,,,,,,4000000,,,,,19,361.2,40,,,,10,1.29
95,Poly(ethylene oxide),Homopolymer,"Ethene, 1,1-dichloro",C2H2Cl2,,,,,,4000000,,,,,19,374.8,31,,,,10,1.25
95,Poly(ethylene oxide),Homopolymer,"Ethene, 1,1-dichloro",C2H2Cl2,,,,,,4000000,,,,,19,398.2,16.6,,,,10,1.51
95,Poly(ethylene oxide),Homopolymer,"Ethene, 1,1-dichloro",C2H2Cl2,,,,,,4000000,,,,,19,423.2,8.5,,,,10,1.97
95,Poly(ethylene oxide),Homopolymer,"Ethane, 1,1,1-trichloro",C2H3Cl3,,,,,,4000000,,,,,19,323.2,1400,,,,10,0.275
95,Poly(ethylene oxide),Homopolymer,"Ethane, 1,1,1-trichloro",C2H3Cl3,,,,,,4000000,,,,,19,348.2,561,,,,10,0.303
95,Poly(ethylene oxide),Homopolymer,"Ethane, 1,1,1-trichloro",C2H3Cl3,,,,,,4000000,,,,,19,361.2,343,,,,10,0.344
95,Poly(ethylene oxide),Homopolymer,"Ethane, 1,1,1-trichloro",C2H3Cl3,,,,,,4000000,,,,,19,374.8,242,,,,10,0.344
95,Poly(ethylene oxide),Homopolymer,"Ethane, 1,1,1-trichloro",C2H3Cl3,,,,,,4000000,,,,,19,398.2,111,,,,10,0.444
95,Poly(ethylene oxide),Homopolymer,"Ethane, 1,1,1-trichloro",C2H3Cl3,,,,,,4000000,,,,,19,423.2,38,,,,10,0.808
95,Poly(ethylene oxide),Homopolymer,"Ethane, 1,1,2-trichloro",C2H3Cl3,,,a,4000000,,,,,,,18,343.4,643.16,,,,55,1.14
95,Poly(ethylene oxide),Homopolymer,"Ethane, 1,1,2-trichloro",C2H3Cl3,,,a,4000000,,,,,,,18,348.4,523.57,,,,55,1.16
95,Poly(ethylene oxide),Homopolymer,"Ethane, 1,1,2-trichloro",C2H3Cl3,,,a,4000000,,,,,,,18,361.4,316.54,,,,55,1.22
95,Poly(ethylene oxide),Homopolymer,"Ethane, 1,1,2-trichloro",C2H3Cl3,,,a,4000000,,,,,,,18,375.1,186.14,,,,55,1.34
95,Poly(ethylene oxide),Homopolymer,"Ethane, 1,1,2-trichloro",C2H3Cl3,,,a,4000000,,,,,,,18,398.9,88.64,,,,55,1.44
95,Poly(ethylene oxide),Homopolymer,"Ethane, 1,1,2-trichloro",C2H3Cl3,,,a,4000000,,,,,,,18,423.7,42,,,,55,1.66
95,Poly(ethylene oxide),Homopolymer,"Ethanol, 2,2,2-trifluoro",C2H3F3O,,10700,,11450,,,,,,,,343.2,,,1.74,C,71,
95,Poly(ethylene oxide),Homopolymer,"Ethanol, 2,2,2-trifluoro",C2H3F3O,,10700,,11450,,,,,,,,373.2,127.6,,,,71,
95,Poly(ethylene oxide),Homopolymer,"Acetic acid, nitrile",C2H3N,,10700,,11450,,,,,,,,343.2,149.3,,,,71,5.71
95,Poly(ethylene oxide),Homopolymer,"Acetic acid, nitrile",C2H3N,,10700,,11450,,,,,,,,373.2,56.3,,,,71,6.3
95,Poly(ethylene oxide),Homopolymer,"Acetic acid, nitrile",C2H3N,,10700,,11450,,,,,,,,393.2,31.9,,,,71,6.77
95,Poly(ethylene oxide),Homopolymer,"Acetic acid, nitrile",C2H3N,,,a,4000000,,,,,,,18,343.4,164.11,,,,55,5.16
96,Poly(ethylene oxide),Homopolymer,"Acetic acid, nitrile",C2H3N,,,a,4000000,,,,,,,18,348.4,135.75,,,,55,5.33
96,Poly(ethylene oxide),Homopolymer,"Acetic acid, nitrile",C2H3N,,,a,4000000,,,,,,,18,361.4,90.88,,,,55,5.4
96,Poly(ethylene oxide),Homopolymer,"Acetic acid, nitrile",C2H3N,,,a,4000000,,,,,,,18,375.1,55.74,,,,55,6.06
96,Poly(ethylene oxide),Homopolymer,"Acetic acid, nitrile",C2H3N,,,a,4000000,,,,,,,18,398.9,31.48,,,,55,6.03
96,Poly(ethylene oxide),Homopolymer,"Acetic acid, nitrile",C2H3N,,,a,4000000,,,,,,,18,423.7,15.88,,,,55,7.14
96,Poly(ethylene oxide),Homopolymer,"Acetic acid, nitrile",C2H3N,,,,,,4000000,,,,,19,323.2,660,,,,10,2.58
96,Poly(ethylene oxide),Homopolymer,"Acetic acid, nitrile",C2H3N,,,,,,4000000,,,,,19,348.2,226,,,,10,3.22
96,Poly(ethylene oxide),Homopolymer,"Acetic acid, nitrile",C2H3N,,,,,,4000000,,,,,19,361.2,155,,,,10,3.18
96,Poly(ethylene oxide),Homopolymer,"Acetic acid, nitrile",C2H3N,,,,,,4000000,,,,,19,374.8,102,,,,10,3.34
96,Poly(ethylene oxide),Homopolymer,"Acetic acid, nitrile",C2H3N,,,,,,4000000,,,,,19,398.2,58,,,,10,3.32
96,Poly(ethylene oxide),Homopolymer,"Acetic acid, nitrile",C2H3N,,,,,,4000000,,,,,19,423.2,20.3,,,,10,5.64
96,Poly(ethylene oxide),Homopolymer,"Ethane, 1,2-dichloro",C2H4Cl2,,,a,4000000,,,,,,,18,343.4,189.85,,,,55,1.89
96,Poly(ethylene oxide),Homopolymer,"Ethane, 1,2-dichloro",C2H4Cl2,,,a,4000000,,,,,,,18,348.4,155.18,,,,55,1.96
96,Poly(ethylene oxide),Homopolymer,"Ethane, 1,2-dichloro",C2H4Cl2,,,a,4000000,,,,,,,18,361.4,101.43,,,,55,2
96,Poly(ethylene oxide),Homopolymer,"Ethane, 1,2-dichloro",C2H4Cl2,,,a,4000000,,,,,,,18,375.1,64.38,,,,55,2.14
96,Poly(ethylene oxide),Homopolymer,"Ethane, 1,2-dichloro",C2H4Cl2,,,a,4000000,,,,,,,18,398.9,33.83,,,,55,2.25