Page,Solute,Solute_type,Solvent,Solvent_formula,MN_symbol,MN,MW_symbol,MW,MV_symbol,MV,per composition,per substitution,Tg_symbol,Tg (K),Note,T (K),Vg (cm3/g),chi_inf,omega_inf,U/C,Ref,calc_omega_inf
27,"1,4-Polybutadiene",Homopolymer,"Methane, trichloro",CHCl3,,,,,,,,,,,1,338.2,,-0.001,,C,50,
27,"1,4-Polybutadiene",Homopolymer,"Methane, trichloro",CHCl3,,,,,,,,,,,1,348.2,,0.052,,C,50,
27,"1,4-Polybutadiene",Homopolymer,"Methane, trichloro",CHCl3,,,,,,,,,,,1,358.2,,0.121,,C,50,
27,"1,4-Polybutadiene",Homopolymer,"Butane, 1-chloro",C4H9Cl,,,,,,,,,,,1,338.2,,0.281,,C,50,
27,"1,4-Polybutadiene",Homopolymer,"Butane, 1-chloro",C4H9Cl,,,,,,,,,,,1,348.2,,0.313,,C,50,
27,"1,4-Polybutadiene",Homopolymer,"Butane, 1-chloro",C4H9Cl,,,,,,,,,,,1,358.2,,0.412,,C,50,
27,"1,4-Polybutadiene",Homopolymer,Pentane,C5H12,,,,,,,,,,,1,338.2,,0.528,,C,50,
27,"1,4-Polybutadiene",Homopolymer,Pentane,C5H12,,,,,,,,,,,1,348.2,,0.516,,C,50,
27,"1,4-Polybutadiene",Homopolymer,Pentane,C5H12,,,,,,,,,,,1,358.2,,0.481,,C,50,
27,"1,4-Polybutadiene",Homopolymer,Benzene,C6H6,,,,,,,,,,,1,338.2,,0.198,,C,50,
27,"1,4-Polybutadiene",Homopolymer,Benzene,C6H6,,,,,,,,,,,1,348.2,,0.204,,C,50,
27,"1,4-Polybutadiene",Homopolymer,Benzene,C6H6,,,,,,,,,,,1,358.2,,0.627,,C,50,
27,"1,4-Polybutadiene",Homopolymer,Toluene,C7H8,,,,,,,,,,,1,338.2,,0.106,,C,50,
27,"1,4-Polybutadiene",Homopolymer,Toluene,C7H8,,,,,,,,,,,1,348.2,,0.1,,C,50,
27,"1,4-Polybutadiene",Homopolymer,Toluene,C7H8,,,,,,,,,,,1,358.2,,0.106,,C,50,
28,"1,4-Polybutadiene",Homopolymer,1-Octene,C8H16,,,,,,,,,,,1,338.2,,0.313,,C,50,
28,"1,4-Polybutadiene",Homopolymer,1-Octene,C8H16,,,,,,,,,,,1,348.2,,0.336,,C,50,
28,"1,4-Polybutadiene",Homopolymer,1-Octene,C8H16,,,,,,,,,,,1,358.2,,0.46,,C,50,
28,"1,4-Polybutadiene",Homopolymer,Octane,C8H18,,,,,,,,,,,1,338.2,,0.442,,C,50,
28,"1,4-Polybutadiene",Homopolymer,Octane,C8H18,,,,,,,,,,,1,348.2,,0.424,,C,50,
28,"1,4-Polybutadiene",Homopolymer,Octane,C8H18,,,,,,,,,,,1,358.2,,0.406,,C,50,
29,Polybutene-1,Homopolymer,Benzene,C6H6,,,,,,,,,,,2,408.2,,0.49,,C,100,
29,Polybutene-1,Homopolymer,Cyclohexane,C6H12,,,,,,,,,,,2,408.2,,0.2,,C,100,
29,Polybutene-1,Homopolymer,Toluene,C7H8,,,,,,,,,,,2,408.2,,0.47,,C,100,
30,Poly(butyl acrylate),Homopolymer,Butyl acrylate,C7H12O2,,320000,,992000,,,,,,,,393.2,60.86,,,,85,6.62
31,Poly(n-butyl acrylate),Homopolymer,"Methane, trichloro",CHCl3,,100000,,,,,,,,,,393.2,19.1,,,,69,2.22
31,Poly(n-butyl acrylate),Homopolymer,"Acetic acid, nitrile",C2H3N,,100000,,,,,,,,,,393.2,11.4,,,,69,19
31,Poly(n-butyl acrylate),Homopolymer,2-Propanone,C3H6O,,100000,,,,,,,,,,393.2,6.5,,,,69,11.5
31,Poly(n-butyl acrylate),Homopolymer,1-Propanol,C3H8O,,100000,,,,,,,,,,393.2,15.4,,,,69,11.7
31,Poly(n-butyl acrylate),Homopolymer,2-Butanone,C4H8O,,100000,,,,,,,,,,393.2,11.5,,,,69,9.55
31,Poly(n-butyl acrylate),Homopolymer,"Acetic acid, ethyl ester",C4H8O2,,100000,,,,,,,,,,393.2,11.1,,,,69,7.47
31,Poly(n-butyl acrylate),Homopolymer,Hexane,C6H14,,100000,,,,,,,,,,393.2,4.8,,,,69,15.9
32,Poly(butylene adipate),Homopolymer,"Methane, tetrachloro",CCl4,,9500,,22000,,,,,,,3,393.2,14.1,,,,37,3.62
32,Poly(butylene adipate),Homopolymer,"Methane, trichloro",CHCl3,,9500,,22000,,,,,,,3,393.2,23.1,,,,37,1.84
32,Poly(butylene adipate),Homopolymer,"Methane, dichloro",CH2Cl2,,9500,,22000,,,,,,,3,393.2,13.4,,,,37,2.5
32,Poly(butylene adipate),Homopolymer,2-Propanone,C3H6O,,9500,,22000,,,,,,,3,393.2,10,,,,37,7.45
32,Poly(butylene adipate),Homopolymer,2-Butanone,C4H8O,,9500,,22000,,,,,,,3,393.2,17,,,,37,6.46
32,Poly(butylene adipate),Homopolymer,"Acetic acid, ethyl ester",C4H8O2,,9500,,22000,,,,,,,3,393.2,14.1,,,,37,5.88
32,Poly(butylene adipate),Homopolymer,Pentane,C5H12,,9500,,22000,,,,,,,3,393.2,2,,,,37,21.3
32,Poly(butylene adipate),Homopolymer,Benzene,C6H6,,9500,,22000,,,,,,,3,393.2,21.6,,,,37,4.85
32,Poly(butylene adipate),Homopolymer,Hexane,C6H14,,9500,,22000,,,,,,,3,393.2,3.7,,,,37,20.7
32,Poly(butylene adipate),Homopolymer,Heptane,C7H16,,9500,,22000,,,,,,,3,393.2,6.4,,,,37,21.1
33,Poly(n-butyl methacrylate),Homopolymer,"Methane, tetrachloro",CCl4,,8716,,9239,,,,,,,,373,32.719,,,,99,2.49
33,Poly(n-butyl methacrylate),Homopolymer,"Methane, tetrachloro",CCl4,,8716,,9239,,,,,,,,393,20.515,,,,99,2.49
33,Poly(n-butyl methacrylate),Homopolymer,"Methane, tetrachloro",CCl4,,8716,,9239,,,,,,,,413,13.317,,,,99,2.56
33,Poly(n-butyl methacrylate),Homopolymer,"Methane, tetrachloro",CCl4,,73500,,320000,,,,,,,,393.2,,,2.73,C,42,
33,Poly(n-butyl methacrylate),Homopolymer,"Methane, tetrachloro",CCl4,,73500,,320000,,,,,,,,403.2,,,2.7,C,42,
33,Poly(n-butyl methacrylate),Homopolymer,"Methane, tetrachloro",CCl4,,73500,,320000,,,,,,,,413.2,,0.313,,C,19,
33,Poly(n-butyl methacrylate),Homopolymer,"Methane, tetrachloro",CCl4,,73500,,320000,,,,,,,,413.2,,,2.68,C,42,
33,Poly(n-butyl methacrylate),Homopolymer,"Methane, tetrachloro",CCl4,,91000,,,,372000,,,a,291,,343.2,76.84,,,,74,2.42
33,Poly(n-butyl methacrylate),Homopolymer,"Methane, tetrachloro",CCl4,,91000,,,,372000,,,a,291,,373.2,34.68,,,,74,2.34
33,Poly(n-butyl methacrylate),Homopolymer,"Methane, trichloro",CHCl3,,8716,,9239,,,,,,,,373,41.666,,,,99,1.6
33,Poly(n-butyl methacrylate),Homopolymer,"Methane, trichloro",CHCl3,,8716,,9239,,,,,,,,393,24.753,,,,99,1.72
33,Poly(n-butyl methacrylate),Homopolymer,"Methane, trichloro",CHCl3,,8716,,9239,,,,,,,,413,15.425,,,,99,1.86
33,Poly(n-butyl methacrylate),Homopolymer,"Methane, trichloro",CHCl3,,35000,,,,,,,,,,393.2,19.1,,,,69,2.22
33,Poly(n-butyl methacrylate),Homopolymer,"Methane, trichloro",CHCl3,,73500,,320000,,,,,,,,393.2,,,1.93,C,42,
33,Poly(n-butyl methacrylate),Homopolymer,"Methane, trichloro",CHCl3,,73500,,320000,,,,,,,,403.2,,,1.99,C,42,
33,Poly(n-butyl methacrylate),Homopolymer,"Methane, trichloro",CHCl3,,73500,,320000,,,,,,,,413.2,,-0.047,,C,19,
33,Poly(n-butyl methacrylate),Homopolymer,"Methane, trichloro",CHCl3,,73500,,320000,,,,,,,,413.2,,,2.05,C,42,
33,Poly(n-butyl methacrylate),Homopolymer,"Methane, trichloro",CHCl3,,91000,,,,372000,,,a,291,,343.2,112.04,,,,74,1.32
33,Poly(n-butyl methacrylate),Homopolymer,"Methane, trichloro",CHCl3,,91000,,,,372000,,,a,291,,373.2,44.59,,,,74,1.49
33,Poly(n-butyl methacrylate),Homopolymer,"Methane, trichloro",CHCl3,,,,,,,,,,293.15,,323.2,245.4,,,,2,1.15
33,Poly(n-butyl methacrylate),Homopolymer,"Methane, trichloro",CHCl3,,,,,,,,,,293.15,,348.2,92,,,,2,1.39
33,Poly(n-butyl methacrylate),Homopolymer,"Methane, trichloro",CHCl3,,,,,,,,,,293.15,,373.2,40.8,,,,2,1.63
33,Poly(n-butyl methacrylate),Homopolymer,"Methane, trichloro",CHCl3,,,,,,,,,,293.15,,398.2,22.6,,,,2,1.69
33,Poly(n-butyl methacrylate),Homopolymer,"Methane, trichloro",CHCl3,,,,,,,,,,293.15,,423.2,12.4,,,,2,1.94
33,Poly(n-butyl methacrylate),Homopolymer,"Methane, dichloro",CH2Cl2,,8716,,9239,,,,,,,,373,20.207,,,,99,2.51
34,Poly(n-butyl methacrylate),Homopolymer,"Methane, dichloro",CH2Cl2,,8716,,9239,,,,,,,,393,12.943,,,,99,2.59
34,Poly(n-butyl methacrylate),Homopolymer,"Methane, dichloro",CH2Cl2,,8716,,9239,,,,,,,,413,8.622,,,,99,2.71
34,Poly(n-butyl methacrylate),Homopolymer,"Methane, dichloro",CH2Cl2,,73500,,320000,,,,,,,,393.2,,,2.8,C,42,
34,Poly(n-butyl methacrylate),Homopolymer,"Methane, dichloro",CH2Cl2,,73500,,320000,,,,,,,,403.2,,,2.84,C,42,
34,Poly(n-butyl methacrylate),Homopolymer,"Methane, dichloro",CH2Cl2,,73500,,320000,,,,,,,,413.2,,0.187,,C,19,
34,Poly(n-butyl methacrylate),Homopolymer,"Methane, dichloro",CH2Cl2,,73500,,320000,,,,,,,,413.2,,,2.9,C,42,
34,Poly(n-butyl methacrylate),Homopolymer,"Methane, dichloro",CH2Cl2,,91000,,,,372000,,,a,291,,343.2,47.22,,,,74,2.25
34,Poly(n-butyl methacrylate),Homopolymer,"Methane, dichloro",CH2Cl2,,91000,,,,372000,,,a,291,,373.2,21.54,,,,74,2.35
34,Poly(n-butyl methacrylate),Homopolymer,Methanol,CH4O,,8716,,9239,,,,,,,,373,10.953,,,,99,19.7
34,Poly(n-butyl methacrylate),Homopolymer,Methanol,CH4O,,8716,,9239,,,,,,,,393,5.788,,,,99,21.1
34,Poly(n-butyl methacrylate),Homopolymer,Methanol,CH4O,,8716,,9239,,,,,,,,413,4.005,,,,99,18.6
34,Poly(n-butyl methacrylate),Homopolymer,"Ethene, trichloro",C2HCl3,,91000,,,,372000,,,a,291,,343.2,143.28,,,,74,2.11
34,Poly(n-butyl methacrylate),Homopolymer,"Ethene, trichloro",C2HCl3,,91000,,,,372000,,,a,291,,373.2,56.61,,,,74,2.16
34,Poly(n-butyl methacrylate),Homopolymer,"Acetic acid, nitrile",C2H3N,,8716,,9239,,,,,,,,373,21.583,,,,99,16.5
34,Poly(n-butyl methacrylate),Homopolymer,"Acetic acid, nitrile",C2H3N,,8716,,9239,,,,,,,,393,13.145,,,,99,16.5
34,Poly(n-butyl methacrylate),Homopolymer,"Acetic acid, nitrile",C2H3N,,8716,,9239,,,,,,,,413,8.703,,,,99,16.1
34,Poly(n-butyl methacrylate),Homopolymer,"Acetic acid, nitrile",C2H3N,,35000,,,,,,,,,,393.2,11.7,,,,69,18.5
34,Poly(n-butyl methacrylate),Homopolymer,"Acetic acid, nitrile",C2H3N,,,,,,,,,,293.15,,373.2,21.7,,,,2,16.4
34,Poly(n-butyl methacrylate),Homopolymer,"Acetic acid, nitrile",C2H3N,,,,,,,,,,293.15,,398.2,11.5,,,,2,16.8
34,Poly(n-butyl methacrylate),Homopolymer,"Acetic acid, nitrile",C2H3N,,,,,,,,,,293.15,,423.2,6.8,,,,2,16.8
34,Poly(n-butyl methacrylate),Homopolymer,"Acetic acid, nitrile",C2H3N,,,,,,,,,,293.15,,448.2,4.3,,,,2,17
34,Poly(n-butyl methacrylate),Homopolymer,"Acetic acid, nitrile",C2H3N,,,,,,,,,,293.15,,473.2,2.8,,,,2,17.9
35,Poly(n-butyl methacrylate),Homopolymer,"Ethane, 1,2-dichloro",C2H4Cl2,,8716,,9239,,,,,,,,373,49.064,,,,99,2.97
35,Poly(n-butyl methacrylate),Homopolymer,"Ethane, 1,2-dichloro",C2H4Cl2,,8716,,9239,,,,,,,,393,29.33,,,,99,2.97
35,Poly(n-butyl methacrylate),Homopolymer,"Ethane, 1,2-dichloro",C2H4Cl2,,8716,,9239,,,,,,,,413,18.483,,,,99,3
35,Poly(n-butyl methacrylate),Homopolymer,"Ethane, 1,2-dichloro",C2H4Cl2,,,,,,,,,,293.15,,323.3,285.7,,,,2,2.61
35,Poly(n-butyl methacrylate),Homopolymer,"Ethane, 1,2-dichloro",C2H4Cl2,,,,,,,,,,293.15,,348.2,108.1,,,,2,2.83
35,Poly(n-butyl methacrylate),Homopolymer,"Ethane, 1,2-dichloro",C2H4Cl2,,,,,,,,,,293.15,,373.2,48.8,,,,2,2.98
35,Poly(n-butyl methacrylate),Homopolymer,"Ethane, 1,2-dichloro",C2H4Cl2,,,,,,,,,,293.15,,398.2,27,,,,2,2.86
35,Poly(n-butyl methacrylate),Homopolymer,"Ethane, 1,2-dichloro",C2H4Cl2,,,,,,,,,,293.15,,423.2,14.8,,,,2,3.04
35,Poly(n-butyl methacrylate),Homopolymer,Acetic acid,C2H4O2,,8716,,9239,,,,,,,,373,,,6.005,U,99,
35,Poly(n-butyl methacrylate),Homopolymer,Acetic acid,C2H4O2,,8716,,9239,,,,,,,,393,,,6.716,U,99,
35,Poly(n-butyl methacrylate),Homopolymer,Acetic acid,C2H4O2,,8716,,9239,,,,,,,,413,,,6.785,U,99,
35,Poly(n-butyl methacrylate),Homopolymer,"1,2-Ethanediol",C2H6O2,,8716,,9239,,,,,,,,373,241.04,,,,99,72.4
35,Poly(n-butyl methacrylate),Homopolymer,"1,2-Ethanediol",C2H6O2,,8716,,9239,,,,,,,,393,112.683,,,,99,57.9
35,Poly(n-butyl methacrylate),Homopolymer,"1,2-Ethanediol",C2H6O2,,8716,,9239,,,,,,,,413,59.924,,,,99,45.6
35,Poly(n-butyl methacrylate),Homopolymer,2-Propanone,C3H6O,,8716,,9239,,,,,,,,373,12.67,,,,99,9.27
35,Poly(n-butyl methacrylate),Homopolymer,2-Propanone,C3H6O,,8716,,9239,,,,,,,,393,8.328,,,,99,8.97
35,Poly(n-butyl methacrylate),Homopolymer,2-Propanone,C3H6O,,8716,,9239,,,,,,,,413,5.809,,,,99,8.66
35,Poly(n-butyl methacrylate),Homopolymer,2-Propanone,C3H6O,,35000,,,,,,,,,,393.2,7,,,,69,10.6
35,Poly(n-butyl methacrylate),Homopolymer,"Formic acid, amide, N,N-dimethyl",C3H7NO,,8716,,9239,,,,,,,,373,158.245,,,,99,9.56
35,Poly(n-butyl methacrylate),Homopolymer,"Formic acid, amide, N,N-dimethyl",C3H7NO,,8716,,9239,,,,,,,,393,79.31,,,,99,9.87
35,Poly(n-butyl methacrylate),Homopolymer,"Formic acid, amide, N,N-dimethyl",C3H7NO,,8716,,9239,,,,,,,,413,46.492,,,,99,9.55
36,Poly(n-butyl methacrylate),Homopolymer,1-Propanol,C3H8O,,35000,,,,,,,,,,393.2,15.6,,,,69,11.5
36,Poly(n-butyl methacrylate),Homopolymer,2-Propanol,C3H8O,,8716,,9239,,,,,,,,373,18.805,,,,99,11
36,Poly(n-butyl methacrylate),Homopolymer,2-Propanol,C3H8O,,8716,,9239,,,,,,,,393,10.51,,,,99,10.6
36,Poly(n-butyl methacrylate),Homopolymer,2-Propanol,C3H8O,,8716,,9239,,,,,,,,413,6.889,,,,99,9.48
36,Poly(n-butyl methacrylate),Homopolymer,2-Propanol,C3H8O,,,,,,,,,,293.15,,373.2,20.6,,,,2,10
36,Poly(n-butyl methacrylate),Homopolymer,2-Propanol,C3H8O,,,,,,,,,,293.15,,398.2,9.9,,,,2,9.72
36,Poly(n-butyl methacrylate),Homopolymer,2-Propanol,C3H8O,,,,,,,,,,293.15,,423.2,5.3,,,,2,9.69
36,Poly(n-butyl methacrylate),Homopolymer,2-Propanol,C3H8O,,,,,,,,,,293.15,,448.2,3.2,,,,2,9.58
36,Poly(n-butyl methacrylate),Homopolymer,2-Propanol,C3H8O,,,,,,,,,,293.15,,473.2,2.2,,,,2,9.17
36,Poly(n-butyl methacrylate),Homopolymer,"Ethanol, 2-methoxy",C3H8O2,,,,,,,,,,293.15,,373.2,58,,,,2,11.7
36,Poly(n-butyl methacrylate),Homopolymer,"Ethanol, 2-methoxy",C3H8O2,,,,,,,,,,293.15,,398.2,27,,,,2,11.1
36,Poly(n-butyl methacrylate),Homopolymer,"Ethanol, 2-methoxy",C3H8O2,,,,,,,,,,293.15,,423.2,14.6,,,,2,10.1
36,Poly(n-butyl methacrylate),Homopolymer,"Ethanol, 2-methoxy",C3H8O2,,,,,,,,,,293.15,,448.2,9,,,,2,8.8
36,Poly(n-butyl methacrylate),Homopolymer,"Ethanol, 2-methoxy",C3H8O2,,,,,,,,,,293.15,,473.2,6.1,,,,2,7.46
36,Poly(n-butyl methacrylate),Homopolymer,2-Butanone,C4H8O,,8716,,9239,,,,,,,,373,28.502,,,,99,6.36
36,Poly(n-butyl methacrylate),Homopolymer,2-Butanone,C4H8O,,8716,,9239,,,,,,,,393,15.654,,,,99,7.04
36,Poly(n-butyl methacrylate),Homopolymer,2-Butanone,C4H8O,,8716,,9239,,,,,,,,413,10.286,,,,99,6.95
36,Poly(n-butyl methacrylate),Homopolymer,2-Butanone,C4H8O,,35000,,,,,,,,,,393.2,14.1,,,,69,7.79
36,Poly(n-butyl methacrylate),Homopolymer,2-Butanone,C4H8O,,,,,,,,,,293.15,,373.2,28.1,,,,2,6.42
36,Poly(n-butyl methacrylate),Homopolymer,2-Butanone,C4H8O,,,,,,,,,,293.15,,398.2,14.5,,,,2,6.76
36,Poly(n-butyl methacrylate),Homopolymer,2-Butanone,C4H8O,,,,,,,,,,293.15,,423.2,7.9,,,,2,7.42
36,Poly(n-butyl methacrylate),Homopolymer,2-Butanone,C4H8O,,,,,,,,,,293.15,,448.2,4.8,,,,2,7.91
37,Poly(n-butyl methacrylate),Homopolymer,2-Butanone,C4H8O,,,,,,,,,,293.15,,473.2,3,,,,2,8.77
37,Poly(n-butyl methacrylate),Homopolymer,"Furane, tetrahydro",C4H8O,,8716,,9239,,,,,,,,373,26.205,,,,99,4.72
37,Poly(n-butyl methacrylate),Homopolymer,"Furane, tetrahydro",C4H8O,,8716,,9239,,,,,,,,393,16.487,,,,99,4.72
37,Poly(n-butyl methacrylate),Homopolymer,"Furane, tetrahydro",C4H8O,,8716,,9239,,,,,,,,413,11.114,,,,99,4.67
37,Poly(n-butyl methacrylate),Homopolymer,"Acetic acid, ethyl ester",C4H8O2,,8716,,9239,,,,,,,,373,22.617,,,,99,6.07
37,Poly(n-butyl methacrylate),Homopolymer,"Acetic acid, ethyl ester",C4H8O2,,8716,,9239,,,,,,,,393,13.672,,,,99,6.08
37,Poly(n-butyl methacrylate),Homopolymer,"Acetic acid, ethyl ester",C4H8O2,,8716,,9239,,,,,,,,413,9.038,,,,99,5.96
37,Poly(n-butyl methacrylate),Homopolymer,"Acetic acid, ethyl ester",C4H8O2,,35000,,,,,,,,,,393.2,12,,,,69,6.91
37,Poly(n-butyl methacrylate),Homopolymer,"Acetic acid, ethyl ester",C4H8O2,,,,,,,,,,293.15,,373.2,22.6,,,,2,6.05
37,Poly(n-butyl methacrylate),Homopolymer,"Acetic acid, ethyl ester",C4H8O2,,,,,,,,,,293.15,,398.2,12.3,,,,2,6.01
37,Poly(n-butyl methacrylate),Homopolymer,"Acetic acid, ethyl ester",C4H8O2,,,,,,,,,,293.15,,423.2,6.2,,,,2,7.13
37,Poly(n-butyl methacrylate),Homopolymer,"Acetic acid, ethyl ester",C4H8O2,,,,,,,,,,293.15,,448.2,4.1,,,,2,6.99
37,Poly(n-butyl methacrylate),Homopolymer,"Acetic acid, ethyl ester",C4H8O2,,,,,,,,,,293.15,,473.2,3.2,,,,2,6.21
37,Poly(n-butyl methacrylate),Homopolymer,"1,4-Dioxane",C4H8O2,,,,,,,,,,293.15,,373.2,65.8,,,,2,4.25
37,Poly(n-butyl methacrylate),Homopolymer,"1,4-Dioxane",C4H8O2,,,,,,,,,,293.15,,398.2,31.1,,,,2,4.55
37,Poly(n-butyl methacrylate),Homopolymer,"1,4-Dioxane",C4H8O2,,,,,,,,,,293.15,,423.2,15.9,,,,2,4.97
37,Poly(n-butyl methacrylate),Homopolymer,"1,4-Dioxane",C4H8O2,,,,,,,,,,293.15,,448.2,9.3,,,,2,5.17
37,Poly(n-butyl methacrylate),Homopolymer,"1,4-Dioxane",C4H8O2,,,,,,,,,,293.15,,473.2,6.1,,,,2,5.14
37,Poly(n-butyl methacrylate),Homopolymer,"Butane, 1-chloro",C4H9Cl,,73500,,320000,,,,,,,,393.2,,,5.07,C,42,
37,Poly(n-butyl methacrylate),Homopolymer,"Butane, 1-chloro",C4H9Cl,,73500,,320000,,,,,,,,403.2,,,5.1,C,42,
37,Poly(n-butyl methacrylate),Homopolymer,"Butane, 1-chloro",C4H9Cl,,73500,,320000,,,,,,,,413.2,,,5.13,C,42,
38,Poly(n-butyl methacrylate),Homopolymer,1-Butanol,C4H10O,,8716,,9239,,,,,,,,373,63.407,,,,99,9.69
38,Poly(n-butyl methacrylate),Homopolymer,1-Butanol,C4H10O,,8716,,9239,,,,,,,,393,34.576,,,,99,8.51
38,Poly(n-butyl methacrylate),Homopolymer,1-Butanol,C4H10O,,8716,,9239,,,,,,,,413,20.467,,,,99,7.6
38,Poly(n-butyl methacrylate),Homopolymer,1-Butanol,C4H10O,,73500,,320000,,,,,,,,393.2,,,7.96,C,42,
38,Poly(n-butyl methacrylate),Homopolymer,1-Butanol,C4H10O,,73500,,320000,,,,,,,,403.2,,,7.56,C,42,
38,Poly(n-butyl methacrylate),Homopolymer,1-Butanol,C4H10O,,73500,,320000,,,,,,,,413.2,,0.662,,C,19,
38,Poly(n-butyl methacrylate),Homopolymer,1-Butanol,C4H10O,,73500,,320000,,,,,,,,413.2,,,7.37,C,42,
38,Poly(n-butyl methacrylate),Homopolymer,1-Butanol,C4H10O,,,,,,,,,,293.15,,373.2,69.2,,,,2,8.82
38,Poly(n-butyl methacrylate),Homopolymer,1-Butanol,C4H10O,,,,,,,,,,293.15,,398.2,31.9,,,,2,7.76
38,Poly(n-butyl methacrylate),Homopolymer,1-Butanol,C4H10O,,,,,,,,,,293.15,,423.2,15.2,,,,2,7.65
38,Poly(n-butyl methacrylate),Homopolymer,1-Butanol,C4H10O,,,,,,,,,,293.15,,448.2,8.5,,,,2,7.27
38,Poly(n-butyl methacrylate),Homopolymer,1-Butanol,C4H10O,,,,,,,,,,293.15,,473.2,5.3,,,,2,6.86
38,Poly(n-butyl methacrylate),Homopolymer,"Ethanol, 2-ethoxy",C4H10O2,,,,,,,,,,293.15,,373.2,88,,,,2,9.56
38,Poly(n-butyl methacrylate),Homopolymer,"Ethanol, 2-ethoxy",C4H10O2,,,,,,,,,,293.15,,398.2,39.6,,,,2,8.92
38,Poly(n-butyl methacrylate),Homopolymer,"Ethanol, 2-ethoxy",C4H10O2,,,,,,,,,,293.15,,423.2,20.1,,,,2,8.32
38,Poly(n-butyl methacrylate),Homopolymer,"Ethanol, 2-ethoxy",C4H10O2,,,,,,,,,,293.15,,448.2,11.6,,,,2,7.51
38,Poly(n-butyl methacrylate),Homopolymer,"Ethanol, 2-ethoxy",C4H10O2,,,,,,,,,,293.15,,473.2,7.4,,,,2,6.62
38,Poly(n-butyl methacrylate),Homopolymer,2-Pentanone,C5H10O,,73500,,320000,,,,,,,,393.2,,,6.29,C,42,
38,Poly(n-butyl methacrylate),Homopolymer,2-Pentanone,C5H10O,,73500,,320000,,,,,,,,403.2,,,6.28,C,42,
38,Poly(n-butyl methacrylate),Homopolymer,2-Pentanone,C5H10O,,73500,,320000,,,,,,,,413.2,,0.481,,C,19,
38,Poly(n-butyl methacrylate),Homopolymer,2-Pentanone,C5H10O,,73500,,320000,,,,,,,,413.2,,,6.28,C,42,
38,Poly(n-butyl methacrylate),Homopolymer,Pentane,C5H12,,91000,,,,372000,,,a,291,,343.2,11.09,,,,74,11
39,Poly(n-butyl methacrylate),Homopolymer,Pentane,C5H12,,91000,,,,372000,,,a,291,,373.2,6.07,,,,74,10.2
39,Poly(n-butyl methacrylate),Homopolymer,"Benzene, chloro",C6H5Cl,,73500,,320000,,,,,,,,393.2,,,3.18,C,42,
39,Poly(n-butyl methacrylate),Homopolymer,"Benzene, chloro",C6H5Cl,,73500,,320000,,,,,,,,403.2,,,3.19,C,42,
39,Poly(n-butyl methacrylate),Homopolymer,"Benzene, chloro",C6H5Cl,,73500,,320000,,,,,,,,413.2,,,3.23,C,42,
39,Poly(n-butyl methacrylate),Homopolymer,Benzene,C6H6,,8716,,9239,,,,,,,,373,40.51,,,,99,4.23
39,Poly(n-butyl methacrylate),Homopolymer,Benzene,C6H6,,8716,,9239,,,,,,,,393,25.128,,,,99,4.18
39,Poly(n-butyl methacrylate),Homopolymer,Benzene,C6H6,,8716,,9239,,,,,,,,413,16.012,,,,99,4.28
39,Poly(n-butyl methacrylate),Homopolymer,Benzene,C6H6,,73500,,320000,,,,,,,,393.2,,,4.56,C,42,
39,Poly(n-butyl methacrylate),Homopolymer,Benzene,C6H6,,73500,,320000,,,,,,,,403.2,,,4.58,C,42,
39,Poly(n-butyl methacrylate),Homopolymer,Benzene,C6H6,,73500,,320000,,,,,,,,413.2,,0.259,,C,19,
39,Poly(n-butyl methacrylate),Homopolymer,Benzene,C6H6,,73500,,320000,,,,,,,,413.2,,,4.61,C,42,
39,Poly(n-butyl methacrylate),Homopolymer,Benzene,C6H6,,91000,,,,372000,,,a,291,,343.2,102.91,,,,74,3.96
39,Poly(n-butyl methacrylate),Homopolymer,Benzene,C6H6,,91000,,,,372000,,,a,291,,373.2,43.9,,,,74,3.88
39,Poly(n-butyl methacrylate),Homopolymer,Benzene,C6H6,,,,,,,,,,293.15,,323.2,216,,,,2,3.79
39,Poly(n-butyl methacrylate),Homopolymer,Benzene,C6H6,,,,,,,,,,293.15,,348.2,86.4,,,,2,4.03
39,Poly(n-butyl methacrylate),Homopolymer,Benzene,C6H6,,,,,,,,,,293.15,,373.2,41.6,,,,2,4.1
39,Poly(n-butyl methacrylate),Homopolymer,Benzene,C6H6,,,,,,,,,,293.15,,373.2,40.5,,,,2,4.21
39,Poly(n-butyl methacrylate),Homopolymer,Benzene,C6H6,,,,,,,,,,293.15,,398.2,22.6,,,,2,4.14