Page,Solute,Solute_type,Solvent,Solvent_formula,MN_symbol,MN,MW_symbol,MW,MV_symbol,MV,per composition,per substitution,Tg_symbol,Tg (K),Note,T (K),Vg (cm3/g),chi_inf,omega_inf,U/C,Ref,calc_omega_inf
253,Poly(vinyl chloride),Homopolymer,"2-Pentanone, 4-methyl",C6H12O,,40000,,80000,,,,,,,,383,22.063,,,,88,12.9
253,Poly(vinyl chloride),Homopolymer,"2-Pentanone, 4-methyl",C6H12O,,40000,,80000,,,,,,,,413,11.763,,,,88,11.1
253,Poly(vinyl chloride),Homopolymer,"Acetic acid, butyl ester",C6H12O2,,40000,,80000,,,,,,,,383,25.069,,,,88,13.1
253,Poly(vinyl chloride),Homopolymer,"Acetic acid, butyl ester",C6H12O2,,40000,,80000,,,,,,,,413,11.626,,,,88,12.2
253,Poly(vinyl chloride),Homopolymer,Hexane,C6H14,,13500,,29570,,,,,,,56,393.2,,,28.9,C,9,
253,Poly(vinyl chloride),Homopolymer,Hexane,C6H14,,35000,,,,,,,,,,393.2,0.1,,,,69,764
253,Poly(vinyl chloride),Homopolymer,Hexane,C6H14,,40000,,80000,,,,,,,,413,1.059,,,,88,49
253,Poly(vinyl chloride),Homopolymer,Hexane,C6H14,,41000,,85000,,,,,,,,393.2,1.4,,,,37,54.6
253,Poly(vinyl chloride),Homopolymer,"Ether, dipropyl",C6H14O,,34000,,,,,,,,,57,315.4,46.63,,,,87,26.5
253,Poly(vinyl chloride),Homopolymer,Toluene,C7H8,,34000,,,,,,,,,57,316.4,222.9,,,,87,12.2
253,Poly(vinyl chloride),Homopolymer,Toluene,C7H8,,40000,,80000,,,,,,,,383,24.079,,,,88,10.8
253,Poly(vinyl chloride),Homopolymer,Toluene,C7H8,,40000,,80000,,,,,,,,413,11.262,,,,88,10.8
253,Poly(vinyl chloride),Homopolymer,Toluene,C7H8,,,a,101500,,,,,a,356.15,,398.2,23.2,,,,89,7.49
253,Poly(vinyl chloride),Homopolymer,Toluene,C7H8,,,a,101500,,,,,a,356.15,,413.2,16.8,,,,89,7.22
253,Poly(vinyl chloride),Homopolymer,Toluene,C7H8,,,a,101500,,,,,a,356.15,,398.2,23.2,,,,92,7.49
254,Poly(vinyl chloride),Homopolymer,Toluene,C7H8,,,a,101500,,,,,a,356.15,,413.2,16.8,,,,92,7.22
254,Poly(vinyl chloride),Homopolymer,Toluene,C7H8,,,,,,,,,,,,294.7,,1.531,,C,32,
254,Poly(vinyl chloride),Homopolymer,Toluene,C7H8,,,,,,,,,,,,328.7,,0.813,,C,32,
254,Poly(vinyl chloride),Homopolymer,Toluene,C7H8,,,,,,,,,,,,347.7,,0.571,,C,32,
254,Poly(vinyl chloride),Homopolymer,Toluene,C7H8,,,,,,,,,,,,367.7,,0.3,,C,32,
254,Poly(vinyl chloride),Homopolymer,Toluene,C7H8,,,,,,,,,,,,391.2,,0.35,,C,32,
254,Poly(vinyl chloride),Homopolymer,Toluene,C7H8,,,,,,,,,,,,428.7,,0.612,,C,32,
254,Poly(vinyl chloride),Homopolymer,Toluene,C7H8,,,,,,,,,,,58,383.2,33.02,,,,91,7.82
254,Poly(vinyl chloride),Homopolymer,Toluene,C7H8,,,,,,,,,,,59,383.2,33.02,,,,95,7.82
254,Poly(vinyl chloride),Homopolymer,Benzyl alcohol,C7H8O,,40000,,80000,,,,,,,,413,141.95,,,,88,12.2
254,Poly(vinyl chloride),Homopolymer,Benzyl alcohol,C7H8O,,40000,,80000,,,,,,,,443,54.46,,,,88,10.8
254,Poly(vinyl chloride),Homopolymer,Butyl acrylate,C7H12O2,,88000,,202000,,,,,,,,393.2,20.79,,,,85,19.4
254,Poly(vinyl chloride),Homopolymer,Heptane,C7H16,,41000,,85000,,,,,,,,393.2,3,,,,37,45
254,Poly(vinyl chloride),Homopolymer,Heptane,C7H16,,,a,101500,,,,,a,356.15,,398.2,3.66,,,,89,32.7
254,Poly(vinyl chloride),Homopolymer,Heptane,C7H16,,,a,101500,,,,,a,356.15,,413.2,2.82,,,,89,30.4
254,Poly(vinyl chloride),Homopolymer,Heptane,C7H16,,,a,101500,,,,,a,356.15,,398.2,3.75,,,,92,31.9
254,Poly(vinyl chloride),Homopolymer,Heptane,C7H16,,,a,101500,,,,,a,356.15,,413.2,2.9,,,,92,29.5
254,Poly(vinyl chloride),Homopolymer,Heptane,C7H16,,,,,,,,,,,58,383.2,5.11,,,,91,34
254,Poly(vinyl chloride),Homopolymer,Heptane,C7H16,,,,,,,,,,,59,383.2,5.11,,,,95,34
254,Poly(vinyl chloride),Homopolymer,Octane,C8H18,,40000,,80000,,,,,,,,383,4.781,,,,88,68
254,Poly(vinyl chloride),Homopolymer,Octane,C8H18,,40000,,80000,,,,,,,,413,3.178,,,,88,45.3
255,Poly(vinyl chloride),Homopolymer,Octane,C8H18,,,,,,,,,,,58,383.2,9.34,,,,91,34.7
255,Poly(vinyl chloride),Homopolymer,Octane,C8H18,,,,,,,,,,,59,383.2,9.34,,,,95,34.7
255,Poly(vinyl chloride),Homopolymer,Nonane,C9H20,,,,,,,,,,,58,383.2,17.77,,,,91,34.5
255,Poly(vinyl chloride),Homopolymer,Nonane,C9H20,,,,,,,,,,,59,383.2,17.77,,,,95,34.5
255,Poly(vinyl chloride),Homopolymer,Decane,C10H22,,,,,,,,,,,58,383.2,33.4,,,,91,35.2
255,Poly(vinyl chloride),Homopolymer,Decane,C10H22,,,,,,,,,,,59,383.2,33.4,,,,95,35.2
256,Poly(vinylidene fluoride),Homopolymer,"Methane, tetrachloro",CCl4,,,,250000,,,,,,,,353.2,4.93,,,,77,28
256,Poly(vinylidene fluoride),Homopolymer,"Methane, tetrachloro",CCl4,,,,250000,,,,,,,,373.2,4.18,,,,77,19.4
256,Poly(vinylidene fluoride),Homopolymer,"Methane, tetrachloro",CCl4,,,,250000,,,,,,,,393.2,3.49,,,,77,14.6
256,Poly(vinylidene fluoride),Homopolymer,"Methane, tetrachloro",CCl4,,,,250000,,,,,,,,413.2,2.82,,,,77,12.1
256,Poly(vinylidene fluoride),Homopolymer,"Methane, tetrachloro",CCl4,,,,250000,,,,,,,,433.2,1.79,,,,77,13.4
256,Poly(vinylidene fluoride),Homopolymer,Methyl chloride,CH3Cl,,,,250000,,,,,,,,353.2,0.53,,,,77,50
256,Poly(vinylidene fluoride),Homopolymer,Methyl chloride,CH3Cl,,,,250000,,,,,,,,373.2,0.86,,,,77,22.4
256,Poly(vinylidene fluoride),Homopolymer,Methyl chloride,CH3Cl,,,,250000,,,,,,,,393.2,1.16,,,,77,12.7
256,Poly(vinylidene fluoride),Homopolymer,Methyl chloride,CH3Cl,,,,250000,,,,,,,,413.2,1.22,,,,77,9.88
256,Poly(vinylidene fluoride),Homopolymer,Methyl chloride,CH3Cl,,,,250000,,,,,,,,433.2,0.94,,,,77,
256,Poly(vinylidene fluoride),Homopolymer,2-Propanone,C3H6O,,,,250000,,,,,,,,353.2,46.52,,,,77,4.23
256,Poly(vinylidene fluoride),Homopolymer,2-Propanone,C3H6O,,,,250000,,,,,,,,373.2,31.23,,,,77,3.75
256,Poly(vinylidene fluoride),Homopolymer,2-Propanone,C3H6O,,,,250000,,,,,,,,393.2,19.49,,,,77,3.82
256,Poly(vinylidene fluoride),Homopolymer,2-Propanone,C3H6O,,,,250000,,,,,,,,413.2,15.46,,,,77,3.25
256,Poly(vinylidene fluoride),Homopolymer,2-Propanone,C3H6O,,,,250000,,,,,,,,433.2,8.89,,,,77,3.99
256,Poly(vinylidene fluoride),Homopolymer,"Acetic acid, methyl ester",C3H6O2,,,,250000,,,,,,,,353.2,32.59,,,,77,4.8
256,Poly(vinylidene fluoride),Homopolymer,"Acetic acid, methyl ester",C3H6O2,,,,250000,,,,,,,,373.2,19.65,,,,77,4.7
256,Poly(vinylidene fluoride),Homopolymer,"Acetic acid, methyl ester",C3H6O2,,,,250000,,,,,,,,393.2,13.38,,,,77,4.39
256,Poly(vinylidene fluoride),Homopolymer,"Acetic acid, methyl ester",C3H6O2,,,,250000,,,,,,,,413.2,8.87,,,,77,4.47
256,Poly(vinylidene fluoride),Homopolymer,"Acetic acid, methyl ester",C3H6O2,,,,250000,,,,,,,,433.2,6.89,,,,77,4.09
256,Poly(vinylidene fluoride),Homopolymer,"Acetic acid, methyl ester",C3H6O2,,,,250000,,,,,,,,453.2,4.76,,,,77,4.41
256,Poly(vinylidene fluoride),Homopolymer,"Acetic acid, methyl ester",C3H6O2,,,,250000,,,,,,,,473.2,3.53,,,,77,4.62
256,Poly(vinylidene fluoride),Homopolymer,"Acetic acid, methyl ester",C3H6O2,,,,250000,,,,,,,,493.2,2.56,,,,77,5.18
257,Poly(vinylidene fluoride),Homopolymer,"Formic acid, amide, N,N-dimethyl",C3H7NO,,,,,,,,,,,,473.2,30.71,,,,44,3.92
257,Poly(vinylidene fluoride),Homopolymer,2-Butanone,C4H8O,,,,250000,,,,,,,,353.2,60.45,,,,77,5.29
257,Poly(vinylidene fluoride),Homopolymer,2-Butanone,C4H8O,,,,250000,,,,,,,,373.2,37.28,,,,77,4.84
257,Poly(vinylidene fluoride),Homopolymer,2-Butanone,C4H8O,,,,250000,,,,,,,,393.2,22.91,,,,77,4.79
257,Poly(vinylidene fluoride),Homopolymer,2-Butanone,C4H8O,,,,250000,,,,,,,,413.2,18.96,,,,77,3.76
257,Poly(vinylidene fluoride),Homopolymer,2-Butanone,C4H8O,,,,250000,,,,,,,,433.2,11.78,,,,77,4.15
257,Poly(vinylidene fluoride),Homopolymer,"Furane, tetrahydro",C4H8O,,,,250000,,,,,,,,353.2,27.02,,,,77,7.78
257,Poly(vinylidene fluoride),Homopolymer,"Furane, tetrahydro",C4H8O,,,,250000,,,,,,,,373.2,20.65,,,,77,5.97
257,Poly(vinylidene fluoride),Homopolymer,"Furane, tetrahydro",C4H8O,,,,250000,,,,,,,,393.2,15.65,,,,77,4.96
257,Poly(vinylidene fluoride),Homopolymer,"Furane, tetrahydro",C4H8O,,,,250000,,,,,,,,413.2,13.19,,,,77,3.92
257,Poly(vinylidene fluoride),Homopolymer,"Furane, tetrahydro",C4H8O,,,,250000,,,,,,,,433.2,7.99,,,,77,4.53
257,Poly(vinylidene fluoride),Homopolymer,"Acetic acid, ethyl ester",C4H8O2,,,,250000,,,,,,,,353.2,51.14,,,,77,4.78
257,Poly(vinylidene fluoride),Homopolymer,"Acetic acid, ethyl ester",C4H8O2,,,,250000,,,,,,,,373.2,31.23,,,,77,4.38
257,Poly(vinylidene fluoride),Homopolymer,"Acetic acid, ethyl ester",C4H8O2,,,,250000,,,,,,,,393.2,19.73,,,,77,4.2
257,Poly(vinylidene fluoride),Homopolymer,"Acetic acid, ethyl ester",C4H8O2,,,,250000,,,,,,,,413.2,11.96,,,,77,4.49
257,Poly(vinylidene fluoride),Homopolymer,"Acetic acid, ethyl ester",C4H8O2,,,,250000,,,,,,,,433.2,8.84,,,,77,4.17
257,Poly(vinylidene fluoride),Homopolymer,"Acetic acid, ethyl ester",C4H8O2,,,,250000,,,,,,,,453.2,6.62,,,,77,4.01
257,Poly(vinylidene fluoride),Homopolymer,"Acetic acid, ethyl ester",C4H8O2,,,,250000,,,,,,,,473.2,4.81,,,,77,4.13
257,Poly(vinylidene fluoride),Homopolymer,"Acetic acid, ethyl ester",C4H8O2,,,,250000,,,,,,,,493.2,3.11,,,,77,4.98
257,Poly(vinylidene fluoride),Homopolymer,"1,4-Dioxane",C4H8O2,,,,250000,,,,,,,,353.2,120.89,,,,77,4.36
258,Poly(vinylidene fluoride),Homopolymer,"1,4-Dioxane",C4H8O2,,,,250000,,,,,,,,373.2,75.82,,,,77,3.69
258,Poly(vinylidene fluoride),Homopolymer,"1,4-Dioxane",C4H8O2,,,,250000,,,,,,,,393.2,45.81,,,,77,3.51
258,Poly(vinylidene fluoride),Homopolymer,"1,4-Dioxane",C4H8O2,,,,250000,,,,,,,,413.2,29.69,,,,77,3.33
258,Poly(vinylidene fluoride),Homopolymer,"1,4-Dioxane",C4H8O2,,,,250000,,,,,,,,433.2,15.57,,,,77,4.12
258,Poly(vinylidene fluoride),Homopolymer,"Acetic acid, propyl ester",C5H10O2,,,,250000,,,,,,,,353.2,67.66,,,,77,6.84
258,Poly(vinylidene fluoride),Homopolymer,"Acetic acid, propyl ester",C5H10O2,,,,250000,,,,,,,,373.2,43.58,,,,77,5.56
258,Poly(vinylidene fluoride),Homopolymer,"Acetic acid, propyl ester",C5H10O2,,,,250000,,,,,,,,393.2,27.35,,,,77,5.05
258,Poly(vinylidene fluoride),Homopolymer,"Acetic acid, propyl ester",C5H10O2,,,,250000,,,,,,,,413.2,18.78,,,,77,4.52
258,Poly(vinylidene fluoride),Homopolymer,"Acetic acid, propyl ester",C5H10O2,,,,250000,,,,,,,,433.2,12.34,,,,77,4.49
258,Poly(vinylidene fluoride),Homopolymer,"Acetic acid, propyl ester",C5H10O2,,,,250000,,,,,,,,453.2,9.11,,,,77,4.19
258,Poly(vinylidene fluoride),Homopolymer,"Acetic acid, propyl ester",C5H10O2,,,,250000,,,,,,,,473.2,6.26,,,,77,4.39
258,Poly(vinylidene fluoride),Homopolymer,"Acetic acid, propyl ester",C5H10O2,,,,250000,,,,,,,,493.2,4.16,,,,77,4.95
258,Poly(vinylidene fluoride),Homopolymer,Pentane,C5H12,,,,250000,,,,,,,,353.2,3.19,,,,77,29.9
258,Poly(vinylidene fluoride),Homopolymer,Pentane,C5H12,,,,250000,,,,,,,,373.2,2.39,,,,77,25.9
258,Poly(vinylidene fluoride),Homopolymer,Pentane,C5H12,,,,250000,,,,,,,,393.2,1.56,,,,77,27.3
258,Poly(vinylidene fluoride),Homopolymer,Pentane,C5H12,,,,250000,,,,,,,,413.2,1.15,,,,77,26.9
258,Poly(vinylidene fluoride),Homopolymer,Pentane,C5H12,,,,250000,,,,,,,,433.2,1.29,,,,77,18.2
258,Poly(vinylidene fluoride),Homopolymer,"Benzene, 1,2-dichloro",C6H4Cl2,,,,,,,,,,,,473.2,9.3,,,,44,10.9
258,Poly(vinylidene fluoride),Homopolymer,Benzene,C6H6,,,,250000,,,,,,,,353.2,14.79,,,,77,20.2
258,Poly(vinylidene fluoride),Homopolymer,Benzene,C6H6,,,,250000,,,,,,,,373.2,11.89,,,,77,14.3
258,Poly(vinylidene fluoride),Homopolymer,Benzene,C6H6,,,,250000,,,,,,,,393.2,9.73,,,,77,10.8
259,Poly(vinylidene fluoride),Homopolymer,Benzene,C6H6,,,,250000,,,,,,,,413.2,6.97,,,,77,9.81
259,Poly(vinylidene fluoride),Homopolymer,Benzene,C6H6,,,,250000,,,,,,,,433.2,4.61,,,,77,10.2
259,Poly(vinylidene fluoride),Homopolymer,Cyclohexanone,C6H10O,,,,,,,,,,,,473.2,15.94,,,,44,5.68
259,Poly(vinylidene fluoride),Homopolymer,Cyclohexanol,C6H12O,,,,,,,,,,,,473.2,6.29,,,,44,12.9
259,Poly(vinylidene fluoride),Homopolymer,"Acetic acid, butyl ester",C6H12O2,,,,250000,,,,,,,,353.2,107.16,,,,77,8.64
259,Poly(vinylidene fluoride),Homopolymer,"Acetic acid, butyl ester",C6H12O2,,,,250000,,,,,,,,373.2,64.99,,,,77,6.95
259,Poly(vinylidene fluoride),Homopolymer,"Acetic acid, butyl ester",C6H12O2,,,,250000,,,,,,,,393.2,39.91,,,,77,6.07
259,Poly(vinylidene fluoride),Homopolymer,"Acetic acid, butyl ester",C6H12O2,,,,250000,,,,,,,,413.2,28.02,,,,77,5.02
259,Poly(vinylidene fluoride),Homopolymer,"Acetic acid, butyl ester",C6H12O2,,,,250000,,,,,,,,433.2,16.97,,,,77,5.16
259,Poly(vinylidene fluoride),Homopolymer,"Acetic acid, butyl ester",C6H12O2,,,,250000,,,,,,,,453.2,12.54,,,,77,4.61
259,Poly(vinylidene fluoride),Homopolymer,"Acetic acid, butyl ester",C6H12O2,,,,250000,,,,,,,,473.2,8.43,,,,77,4.76
259,Poly(vinylidene fluoride),Homopolymer,"Acetic acid, butyl ester",C6H12O2,,,,250000,,,,,,,,493.2,5.74,,,,77,5.07
259,Poly(vinylidene fluoride),Homopolymer,Hexane,C6H14,,,,250000,,,,,,,,353.2,2.81,,,,77,70.9
259,Poly(vinylidene fluoride),Homopolymer,Hexane,C6H14,,,,250000,,,,,,,,373.2,2.32,,,,77,51.5
259,Poly(vinylidene fluoride),Homopolymer,Hexane,C6H14,,,,250000,,,,,,,,393.2,1.99,,,,77,38.4
259,Poly(vinylidene fluoride),Homopolymer,Hexane,C6H14,,,,250000,,,,,,,,413.2,1.46,,,,77,35.4
259,Poly(vinylidene fluoride),Homopolymer,Hexane,C6H14,,,,250000,,,,,,,,433.2,1.02,,,,77,35.9
259,Poly(vinylidene fluoride),Homopolymer,Toluene,C7H8,,,,250000,,,,,,,,353.2,35.82,,,,77,18.1
259,Poly(vinylidene fluoride),Homopolymer,Toluene,C7H8,,,,250000,,,,,,,,373.2,22.95,,,,77,15
260,Poly(vinylidene fluoride),Homopolymer,Toluene,C7H8,,,,250000,,,,,,,,393.2,15.85,,,,77,12.5
260,Poly(vinylidene fluoride),Homopolymer,Toluene,C7H8,,,,250000,,,,,,,,413.2,12.08,,,,77,10
260,Poly(vinylidene fluoride),Homopolymer,Toluene,C7H8,,,,250000,,,,,,,,433.2,7.64,,,,77,10.3
260,Poly(vinylidene fluoride),Homopolymer,Heptane,C7H16,,,,250000,,,,,,,,353.2,4.12,,,,77,100
260,Poly(vinylidene fluoride),Homopolymer,Heptane,C7H16,,,,250000,,,,,,,,373.2,3.29,,,,77,69
260,Poly(vinylidene fluoride),Homopolymer,Heptane,C7H16,,,,250000,,,,,,,,393.2,2.61,,,,77,51.7
260,Poly(vinylidene fluoride),Homopolymer,Heptane,C7H16,,,,250000,,,,,,,,413.2,1.88,,,,77,45.6
260,Poly(vinylidene fluoride),Homopolymer,Heptane,C7H16,,,,250000,,,,,,,,433.2,1.15,,,,77,50
260,Poly(vinylidene fluoride),Homopolymer,Acetophenone,C8H8O,,,,,,,,,,,,473.2,32.53,,,,44,6.42
260,Poly(vinylidene fluoride),Homopolymer,"Octane, 1-chloro",C8H17Cl,,,,,,,,,,,,473.2,,,28.51,U,44,
260,Poly(vinylidene fluoride),Homopolymer,Octane,C8H18,,,,250000,,,,,,,,353.2,5.35,,,,77,164
260,Poly(vinylidene fluoride),Homopolymer,Octane,C8H18,,,,250000,,,,,,,,373.2,4.01,,,,77,110
260,Poly(vinylidene fluoride),Homopolymer,Octane,C8H18,,,,250000,,,,,,,,393.2,3.19,,,,77,76
260,Poly(vinylidene fluoride),Homopolymer,Octane,C8H18,,,,250000,,,,,,,,413.2,2.04,,,,77,70.3
260,Poly(vinylidene fluoride),Homopolymer,Octane,C8H18,,,,250000,,,,,,,,433.2,1.25,,,,77,72.5
260,Poly(vinylidene fluoride),Homopolymer,Octane,C8H18,,,,250000,,,,,,,,453.2,1.42,,,,77,42.7
260,Poly(vinylidene fluoride),Homopolymer,Octane,C8H18,,,,250000,,,,,,,,473.2,1.27,,,,77,33.5
260,Poly(vinylidene fluoride),Homopolymer,Octane,C8H18,,,,250000,,,,,,,,493.2,1.12,,,,77,27.9
260,Poly(vinylidene fluoride),Homopolymer,Nonane,C9H20,,,,250000,,,,,,,,353.2,7.19,,,,77,260
261,Poly(vinylidene fluoride),Homopolymer,Nonane,C9H20,,,,250000,,,,,,,,373.2,5.06,,,,77,171
261,Poly(vinylidene fluoride),Homopolymer,Nonane,C9H20,,,,250000,,,,,,,,393.2,3.81,,,,77,116
261,Poly(vinylidene fluoride),Homopolymer,Nonane,C9H20,,,,250000,,,,,,,,413.2,2.08,,,,77,118
261,Poly(vinylidene fluoride),Homopolymer,Nonane,C9H20,,,,250000,,,,,,,,433.2,1.39,,,,77,106
261,Poly(vinylidene fluoride),Homopolymer,Nonane,C9H20,,,,250000,,,,,,,,453.2,2.51,,,,77,37.2
261,Poly(vinylidene fluoride),Homopolymer,Nonane,C9H20,,,,250000,,,,,,,,473.2,1.97,,,,77,31.7
261,Poly(vinylidene fluoride),Homopolymer,Nonane,C9H20,,,,250000,,,,,,,,493.2,1.81,,,,77,24.3
261,Poly(vinylidene fluoride),Homopolymer,Tetralin,C10H12,,,,,,,,,,,,473.2,11.67,,,,44,18
261,Poly(vinylidene fluoride),Homopolymer,"Benzene, butyl",C10H14,,,,,,,,,,,,473.2,5.09,,,,44,23.7
261,Poly(vinylidene fluoride),Homopolymer,"Decane, 1-chloro",C10H21Cl,,,,,,,,,,,,473.2,,,37.78,U,44,
261,Poly(vinylidene fluoride),Homopolymer,Decane,C10H22,,,,250000,,,,,,,,353.2,11.75,,,,77,343
261,Poly(vinylidene fluoride),Homopolymer,Decane,C10H22,,,,250000,,,,,,,,373.2,7.83,,,,77,220
261,Poly(vinylidene fluoride),Homopolymer,Decane,C10H22,,,,250000,,,,,,,,393.2,5.31,,,,77,154
261,Poly(vinylidene fluoride),Homopolymer,Decane,C10H22,,,,250000,,,,,,,,413.2,2.54,,,,77,168
261,Poly(vinylidene fluoride),Homopolymer,Decane,C10H22,,,,250000,,,,,,,,433.2,1.42,,,,77,169
261,Poly(vinylidene fluoride),Homopolymer,Decane,C10H22,,,,250000,,,,,,,,453.2,3.59,,,,77,40
261,Poly(vinylidene fluoride),Homopolymer,Decane,C10H22,,,,250000,,,,,,,,473.2,2.89,,,,77,31.7
261,Poly(vinylidene fluoride),Homopolymer,Decane,C10H22,,,,250000,,,,,,,,493.2,2.69,,,,77,22.8
261,Poly(vinylidene fluoride),Homopolymer,Undecane,C11H24,,,,250000,,,,,,,,353.2,29.28,,,,77,289
262,Poly(vinylidene fluoride),Homopolymer,Undecane,C11H24,,,,250000,,,,,,,,373.2,8.89,,,,77,375
262,Poly(vinylidene fluoride),Homopolymer,Undecane,C11H24,,,,250000,,,,,,,,393.2,7.62,,,,77,195
262,Poly(vinylidene fluoride),Homopolymer,Undecane,C11H24,,,,250000,,,,,,,,413.2,3.63,,,,77,201
262,Poly(vinylidene fluoride),Homopolymer,Undecane,C11H24,,,,250000,,,,,,,,433.2,2.86,,,,77,137
262,Poly(vinylidene fluoride),Homopolymer,Undecane,C11H24,,,,250000,,,,,,,,453.2,4.85,,,,77,46.7
262,Poly(vinylidene fluoride),Homopolymer,Undecane,C11H24,,,,250000,,,,,,,,473.2,3.78,,,,77,36.9
262,Poly(vinylidene fluoride),Homopolymer,Undecane,C11H24,,,,250000,,,,,,,,493.2,3.29,,,,77,27.5
262,Poly(vinylidene fluoride),Homopolymer,Dodecane,C12H26,,,,250000,,,,,,,,353.2,35.09,,,,77,525
262,Poly(vinylidene fluoride),Homopolymer,Dodecane,C12H26,,,,250000,,,,,,,,373.2,14.61,,,,77,457
262,Poly(vinylidene fluoride),Homopolymer,Dodecane,C12H26,,,,250000,,,,,,,,393.2,12.47,,,,77,221
262,Poly(vinylidene fluoride),Homopolymer,Dodecane,C12H26,,,,250000,,,,,,,,413.2,4.19,,,,77,303
262,Poly(vinylidene fluoride),Homopolymer,Dodecane,C12H26,,,,250000,,,,,,,,433.2,6.34,,,,77,101
262,Poly(vinylidene fluoride),Homopolymer,Dodecane,C12H26,,,,250000,,,,,,,,453.2,5.53,,,,77,63.6
262,Poly(vinylidene fluoride),Homopolymer,Dodecane,C12H26,,,,250000,,,,,,,,473.2,4.31,,,,77,48
262,Poly(vinylidene fluoride),Homopolymer,Dodecane,C12H26,,,,250000,,,,,,,,493.2,3.82,,,,77,33.8
262,Poly(vinylidene fluoride),Homopolymer,Tetradecane,C14H30,,,,,,,,,,,,473.2,3.22,,,,44,144
263,Poly(vinyl isobutyl ether),Homopolymer,"Methane, tetrachloro",CCl4,,2340,,,,8600,,,,,60,303.2,,0.224,,C,76,
263,Poly(vinyl isobutyl ether),Homopolymer,"Methane, tetrachloro",CCl4,,2340,,,,8600,,,,,60,323.2,,0.21,,C,76,
263,Poly(vinyl isobutyl ether),Homopolymer,"Methane, tetrachloro",CCl4,,2340,,,,8600,,,,,60,343.2,,0.222,,C,76,
263,Poly(vinyl isobutyl ether),Homopolymer,"Methane, tetrachloro",CCl4,,2340,,,,8600,,,,,60,363.2,,0.235,,C,76,
263,Poly(vinyl isobutyl ether),Homopolymer,"Methane, tetrachloro",CCl4,,2500,,,,12400,,,,,61,323.2,,0.171,,C,76,
263,Poly(vinyl isobutyl ether),Homopolymer,"Methane, tetrachloro",CCl4,,2500,,,,12400,,,,,61,343.2,,0.249,,C,76,
263,Poly(vinyl isobutyl ether),Homopolymer,"Methane, tetrachloro",CCl4,,2500,,,,12400,,,,,61,363.2,,0.242,,C,76,
263,Poly(vinyl isobutyl ether),Homopolymer,"Methane, trichloro",CHCl3,,2340,,,,8600,,,,,60,303.2,,-0.351,,C,76,
263,Poly(vinyl isobutyl ether),Homopolymer,"Methane, trichloro",CHCl3,,2340,,,,8600,,,,,60,323.2,,-0.237,,C,76,
263,Poly(vinyl isobutyl ether),Homopolymer,"Methane, trichloro",CHCl3,,2340,,,,8600,,,,,60,343.2,,-0.101,,C,76,
263,Poly(vinyl isobutyl ether),Homopolymer,"Methane, trichloro",CHCl3,,2340,,,,8600,,,,,60,363.2,,0.025,,C,76,
263,Poly(vinyl isobutyl ether),Homopolymer,"Methane, trichloro",CHCl3,,2500,,,,12400,,,,,60,323.2,,-0.206,,C,76,
263,Poly(vinyl isobutyl ether),Homopolymer,"Methane, trichloro",CHCl3,,2500,,,,12400,,,,,61,343.2,,-0.065,,C,76,
263,Poly(vinyl isobutyl ether),Homopolymer,"Methane, trichloro",CHCl3,,2500,,,,12400,,,,,61,363.2,,0.043,,C,76,
263,Poly(vinyl isobutyl ether),Homopolymer,"Methane, dichloro",CH2Cl2,,2340,,,,8600,,,,,60,303.2,,0.03,,C,76,
263,Poly(vinyl isobutyl ether),Homopolymer,"Methane, dichloro",CH2Cl2,,2340,,,,8600,,,,,60,323.2,,0.199,,C,76,
263,Poly(vinyl isobutyl ether),Homopolymer,"Methane, dichloro",CH2Cl2,,2340,,,,8600,,,,,60,343.2,,0.248,,C,76,