Page,Solute,Solute_type,Solvent,Solvent_formula,MN_symbol,MN,MW_symbol,MW,MV_symbol,MV,per composition,per substitution,Tg_symbol,Tg (K),Note,T (K),Vg (cm3/g),chi_inf,omega_inf,U/C,Ref,calc_omega_inf
104,Poly(ethylene oxide),Homopolymer,Benzene,C6H6,,4000,,,,,,,,,28,363.4,,,4.2,C,90,
104,Poly(ethylene oxide),Homopolymer,Benzene,C6H6,,4000,,,,,,,,,26,343.4,,,3.82,U,96,3.93
104,Poly(ethylene oxide),Homopolymer,Benzene,C6H6,,7500,,,,,,,,,29,345.5,,,3.666,C,90,
104,Poly(ethylene oxide),Homopolymer,Benzene,C6H6,,7500,,,,,,,,,29,353.7,,,3.877,C,90,
105,Poly(ethylene oxide),Homopolymer,Benzene,C6H6,,7500,,,,,,,,,29,364.2,,,4.023,C,90,
105,Poly(ethylene oxide),Homopolymer,Benzene,C6H6,,7500,,,,,,,,,29,372.3,,,4.125,C,90,
105,Poly(ethylene oxide),Homopolymer,Benzene,C6H6,,10000,,,,,,,,,30,344.3,,,3.367,C,90,
105,Poly(ethylene oxide),Homopolymer,Benzene,C6H6,,10000,,,,,,,,,30,352.7,,,3.48,C,90,
105,Poly(ethylene oxide),Homopolymer,Benzene,C6H6,,10000,,,,,,,,,30,362.7,,,3.633,C,90,
105,Poly(ethylene oxide),Homopolymer,Benzene,C6H6,,10000,,,,,,,,,30,372.3,,,3.525,C,90,
105,Poly(ethylene oxide),Homopolymer,Benzene,C6H6,,10700,,11450,,,,,,,,343.2,100,,,,71,4.08
105,Poly(ethylene oxide),Homopolymer,Benzene,C6H6,,10700,,11450,,,,,,,,373.2,40.2,,,,71,4.24
105,Poly(ethylene oxide),Homopolymer,Benzene,C6H6,,10700,,11450,,,,,,,,393.2,23.64,,,,71,4.43
105,Poly(ethylene oxide),Homopolymer,Benzene,C6H6,,10800,,,,,,,,,27,343.4,,,3.84,U,96,3.95
105,Poly(ethylene oxide),Homopolymer,Benzene,C6H6,,,,300000,,,,,,,,353.2,,,4.49,C,70,
105,Poly(ethylene oxide),Homopolymer,Benzene,C6H6,,,,300000,,,,,,,,373.2,,,4.512,C,70,
105,Poly(ethylene oxide),Homopolymer,Benzene,C6H6,,,,300000,,,,,,,,393.2,,,4.606,C,70,
105,Poly(ethylene oxide),Homopolymer,Benzene,C6H6,,,a,4000000,,,,,,,18,343.4,89.36,,,,55,4.53
105,Poly(ethylene oxide),Homopolymer,Benzene,C6H6,,,a,4000000,,,,,,,18,348.4,76.12,,,,55,4.54
105,Poly(ethylene oxide),Homopolymer,Benzene,C6H6,,,a,4000000,,,,,,,18,361.4,50.95,,,,55,4.61
105,Poly(ethylene oxide),Homopolymer,Benzene,C6H6,,,a,4000000,,,,,,,18,375.1,35.09,,,,55,4.63
105,Poly(ethylene oxide),Homopolymer,Benzene,C6H6,,,a,4000000,,,,,,,18,398.9,20.33,,,,55,4.53
105,Poly(ethylene oxide),Homopolymer,Benzene,C6H6,,,a,4000000,,,,,,,18,423.7,11.99,,,,55,4.65
105,Poly(ethylene oxide),Homopolymer,Benzene,C6H6,,,,,,4000000,,,,,19,323.2,210,,,,10,3.9
105,Poly(ethylene oxide),Homopolymer,Benzene,C6H6,,,,,,4000000,,,,,19,348.2,79,,,,10,4.4
105,Poly(ethylene oxide),Homopolymer,Benzene,C6H6,,,,,,4000000,,,,,19,361.2,63.7,,,,10,3.71
105,Poly(ethylene oxide),Homopolymer,Benzene,C6H6,,,,,,4000000,,,,,19,374.8,40,,,,10,4.09
105,Poly(ethylene oxide),Homopolymer,Benzene,C6H6,,,,,,4000000,,,,,19,398.2,21.3,,,,10,4.4
105,Poly(ethylene oxide),Homopolymer,Benzene,C6H6,,,,,,4000000,,,,,19,423.2,12.1,,,,10,4.65
105,Poly(ethylene oxide),Homopolymer,Cyclohexane,C6H12,,1000,,,,,,,,,17,343.4,20.5,,,,96,18.6
105,Poly(ethylene oxide),Homopolymer,Cyclohexane,C6H12,,1000,,,,,,,,,17,352.4,16.6,,,,96,17.4
106,Poly(ethylene oxide),Homopolymer,Cyclohexane,C6H12,,10700,,11450,,,,,,,,343.2,22.92,,,,71,16.7
106,Poly(ethylene oxide),Homopolymer,Cyclohexane,C6H12,,,,300000,,,,,,,,353.2,,,14.92,C,70,
106,Poly(ethylene oxide),Homopolymer,Cyclohexane,C6H12,,,,300000,,,,,,,,373.2,,,12.93,C,70,
106,Poly(ethylene oxide),Homopolymer,Cyclohexane,C6H12,,,,300000,,,,,,,,393.2,,,11.53,C,70,
106,Poly(ethylene oxide),Homopolymer,1-Hexene,C6H12,,1000,,,,,,,,,17,343.4,11.1,,,,96,20.6
106,Poly(ethylene oxide),Homopolymer,1-Hexene,C6H12,,1000,,,,,,,,,17,352.4,9.04,,,,96,19.7
106,Poly(ethylene oxide),Homopolymer,"Acetic acid, butyl ester",C6H12O2,,,a,4000000,,,,,,,18,343.4,246.01,,,,55,5.57
106,Poly(ethylene oxide),Homopolymer,"Acetic acid, butyl ester",C6H12O2,,,a,4000000,,,,,,,18,348.4,202.52,,,,55,5.52
106,Poly(ethylene oxide),Homopolymer,"Acetic acid, butyl ester",C6H12O2,,,a,4000000,,,,,,,18,361.4,128.37,,,,55,5.31
106,Poly(ethylene oxide),Homopolymer,"Acetic acid, butyl ester",C6H12O2,,,a,4000000,,,,,,,18,375.1,80.59,,,,55,5.26
106,Poly(ethylene oxide),Homopolymer,"Acetic acid, butyl ester",C6H12O2,,,a,4000000,,,,,,,18,398.9,41.36,,,,55,4.98
106,Poly(ethylene oxide),Homopolymer,"Acetic acid, butyl ester",C6H12O2,,,a,4000000,,,,,,,18,423.7,21.02,,,,55,5.18
106,Poly(ethylene oxide),Homopolymer,"Acetic acid, butyl ester",C6H12O2,,,,,,4000000,,,,,19,323.2,834,,,,10,4.05
106,Poly(ethylene oxide),Homopolymer,"Acetic acid, butyl ester",C6H12O2,,,,,,4000000,,,,,19,348.2,279,,,,10,4.04
106,Poly(ethylene oxide),Homopolymer,"Acetic acid, butyl ester",C6H12O2,,,,,,4000000,,,,,19,361.2,177,,,,10,3.88
106,Poly(ethylene oxide),Homopolymer,"Acetic acid, butyl ester",C6H12O2,,,,,,4000000,,,,,19,398.2,59.8,,,,10,3.51
106,Poly(ethylene oxide),Homopolymer,"Acetic acid, butyl ester",C6H12O2,,,,,,4000000,,,,,19,423.2,17.2,,,,10,6.41
106,Poly(ethylene oxide),Homopolymer,Hexane,C6H14,,670,,,,,,,,,20,340.5,,,40.1,C,93,
106,Poly(ethylene oxide),Homopolymer,Hexane,C6H14,,1000,,,,,,,,,17,343.4,8.34,,,,96,31.6
106,Poly(ethylene oxide),Homopolymer,Hexane,C6H14,,1000,,,,,,,,,17,352.4,6.61,,,,96,30.8
106,Poly(ethylene oxide),Homopolymer,Hexane,C6H14,,1400,,,,,,,,,21,340.5,,,35.3,C,93,
106,Poly(ethylene oxide),Homopolymer,Hexane,C6H14,,3400,,,,,,,,,22,340.5,,,32.7,C,93,
106,Poly(ethylene oxide),Homopolymer,Hexane,C6H14,,4000,,,,,,,,,28,334.7,,,33.38,C,90,
107,Poly(ethylene oxide),Homopolymer,Hexane,C6H14,,4000,,,,,,,,,28,343.6,,,32.07,C,90,
107,Poly(ethylene oxide),Homopolymer,Hexane,C6H14,,4000,,,,,,,,,28,353.5,,,31.82,C,90,
107,Poly(ethylene oxide),Homopolymer,Hexane,C6H14,,4000,,,,,,,,,28,363.5,,,29.2,C,90,
107,Poly(ethylene oxide),Homopolymer,Hexane,C6H14,,7500,,,,,,,,,29,345,,,27.86,C,90,
107,Poly(ethylene oxide),Homopolymer,Hexane,C6H14,,7500,,,,,,,,,29,353.7,,,27.44,C,90,
107,Poly(ethylene oxide),Homopolymer,Hexane,C6H14,,7500,,,,,,,,,29,364.2,,,27.08,C,90,
107,Poly(ethylene oxide),Homopolymer,Hexane,C6H14,,7500,,,,,,,,,29,372.7,,,26.76,C,90,
107,Poly(ethylene oxide),Homopolymer,Hexane,C6H14,,10000,,,,,,,,,30,344.2,,,27.72,C,90,
107,Poly(ethylene oxide),Homopolymer,Hexane,C6H14,,10000,,,,,,,,,30,352.3,,,26.05,C,90,
107,Poly(ethylene oxide),Homopolymer,Hexane,C6H14,,10000,,,,,,,,,30,362.6,,,23.52,C,90,
107,Poly(ethylene oxide),Homopolymer,Hexane,C6H14,,10000,,,,,,,,,30,372.3,,,22.26,C,90,
107,Poly(ethylene oxide),Homopolymer,Hexane,C6H14,,,,300000,,,,,,,,353.2,,,15.82,C,70,
107,Poly(ethylene oxide),Homopolymer,Hexane,C6H14,,,,300000,,,,,,,,373.2,,,14.55,C,70,
107,Poly(ethylene oxide),Homopolymer,Hexane,C6H14,,,,300000,,,,,,,,393.2,,,13.73,C,70,
107,Poly(ethylene oxide),Homopolymer,"Diethyleneglycol, dimethyl ether",C6H14O3,,10700,,11450,,,,,,,,373.2,,,3.7,C,71,
107,Poly(ethylene oxide),Homopolymer,"Diethyleneglycol, dimethyl ether",C6H14O3,,10700,,11450,,,,,,,,393.2,,,3.84,C,71,
107,Poly(ethylene oxide),Homopolymer,Toluene,C7H8,,200,,218,,,,,,,,348.2,110,,,,64,7.02
107,Poly(ethylene oxide),Homopolymer,Toluene,C7H8,,200,,218,,,,,,,,373.2,52.4,,,,64,6.56
107,Poly(ethylene oxide),Homopolymer,Toluene,C7H8,,200,,218,,,,,,,,398.2,27.9,,,,64,6.23
107,Poly(ethylene oxide),Homopolymer,Toluene,C7H8,,300,,327,,,,,,,,348.2,127.7,,,,64,6.05
107,Poly(ethylene oxide),Homopolymer,Toluene,C7H8,,300,,327,,,,,,,,373.2,60.7,,,,64,5.66
107,Poly(ethylene oxide),Homopolymer,Toluene,C7H8,,300,,327,,,,,,,,398.2,32,,,,64,5.43
107,Poly(ethylene oxide),Homopolymer,Toluene,C7H8,,400,,436,,,,,,,,348.2,137.1,,,,64,5.63
107,Poly(ethylene oxide),Homopolymer,Toluene,C7H8,,400,,436,,,,,,,,373.2,63.9,,,,64,5.38
107,Poly(ethylene oxide),Homopolymer,Toluene,C7H8,,400,,436,,,,,,,,398.2,33.4,,,,64,5.2
108,Poly(ethylene oxide),Homopolymer,Toluene,C7H8,,600,,654,,,,,,,,348.2,145.7,,,,64,5.3
108,Poly(ethylene oxide),Homopolymer,Toluene,C7H8,,600,,654,,,,,,,,373.2,65.7,,,,64,5.23
108,Poly(ethylene oxide),Homopolymer,Toluene,C7H8,,600,,654,,,,,,,,398.2,34.4,,,,64,5.05
108,Poly(ethylene oxide),Homopolymer,Toluene,C7H8,,600,,,,,,,,,23,343.4,,,5.63,U,96,5.73
108,Poly(ethylene oxide),Homopolymer,Toluene,C7H8,,1000,,1090,,,,,,,,348.2,155.7,,,,64,4.96
108,Poly(ethylene oxide),Homopolymer,Toluene,C7H8,,1000,,1090,,,,,,,,373.2,71,,,,64,4.84
108,Poly(ethylene oxide),Homopolymer,Toluene,C7H8,,1000,,1090,,,,,,,,398.2,36.9,,,,64,4.71
108,Poly(ethylene oxide),Homopolymer,Toluene,C7H8,,1000,,,,,,,,,17,343.4,173,,,,96,5.3
108,Poly(ethylene oxide),Homopolymer,Toluene,C7H8,,1000,,,,,,,,,17,352.4,125,,,,96,5.34
108,Poly(ethylene oxide),Homopolymer,Toluene,C7H8,,2000,,2180,,,,,,,,348.2,165.2,,,,64,4.67
108,Poly(ethylene oxide),Homopolymer,Toluene,C7H8,,2000,,2180,,,,,,,,373.2,74.5,,,,64,4.61
108,Poly(ethylene oxide),Homopolymer,Toluene,C7H8,,2000,,2180,,,,,,,,398.2,38.1,,,,64,4.56
108,Poly(ethylene oxide),Homopolymer,Toluene,C7H8,,2100,,,,,,,,,24,343.4,,,4.82,U,96,4.91
108,Poly(ethylene oxide),Homopolymer,Toluene,C7H8,,3600,,,,,,,,,25,343.4,,,4.56,U,96,4.64
108,Poly(ethylene oxide),Homopolymer,Toluene,C7H8,,4000,,,,,,,,,28,334.4,,,4.45,C,90,
108,Poly(ethylene oxide),Homopolymer,Toluene,C7H8,,4000,,,,,,,,,28,343.7,,,4.477,C,90,
108,Poly(ethylene oxide),Homopolymer,Toluene,C7H8,,4000,,,,,,,,,28,353.5,,,4.711,C,90,
108,Poly(ethylene oxide),Homopolymer,Toluene,C7H8,,4000,,,,,,,,,28,363.4,,,4.683,C,90,
108,Poly(ethylene oxide),Homopolymer,Toluene,C7H8,,4000,,,,,,,,,26,343.4,,,4.48,U,96,4.56
108,Poly(ethylene oxide),Homopolymer,Toluene,C7H8,,7500,,,,,,,,,29,345.5,,,4.349,C,90,
108,Poly(ethylene oxide),Homopolymer,Toluene,C7H8,,7500,,,,,,,,,29,353.7,,,4.595,C,90,
108,Poly(ethylene oxide),Homopolymer,Toluene,C7H8,,7500,,,,,,,,,29,364.2,,,4.66,C,90,
108,Poly(ethylene oxide),Homopolymer,Toluene,C7H8,,7500,,,,,,,,,29,372.3,,,4.87,C,90,
108,Poly(ethylene oxide),Homopolymer,Toluene,C7H8,,10000,,,,,,,,,30,344.3,,,3.877,C,90,
108,Poly(ethylene oxide),Homopolymer,Toluene,C7H8,,10000,,,,,,,,,30,352.7,,,4.015,C,90,
108,Poly(ethylene oxide),Homopolymer,Toluene,C7H8,,10000,,,,,,,,,30,362.7,,,4.141,C,90,
108,Poly(ethylene oxide),Homopolymer,Toluene,C7H8,,10000,,,,,,,,,30,372.3,,,3.912,C,90,
108,Poly(ethylene oxide),Homopolymer,Toluene,C7H8,,10700,,11450,,,,,,,,343.2,192.6,,,,71,4.8
108,Poly(ethylene oxide),Homopolymer,Toluene,C7H8,,10700,,11450,,,,,,,,373.2,71.7,,,,71,4.79
109,Poly(ethylene oxide),Homopolymer,Toluene,C7H8,,10700,,11450,,,,,,,,393.2,40.32,,,,71,4.89
109,Poly(ethylene oxide),Homopolymer,Toluene,C7H8,,10800,,,,,,,,,27,343.4,,,4.57,U,96,4.65
109,Poly(ethylene oxide),Homopolymer,Toluene,C7H8,,,,300000,,,,,,,,353.2,,,5.009,C,70,
109,Poly(ethylene oxide),Homopolymer,Toluene,C7H8,,,,300000,,,,,,,,373.2,,,4.977,C,70,
109,Poly(ethylene oxide),Homopolymer,Toluene,C7H8,,,,300000,,,,,,,,393.2,,,5.017,C,70,
109,Poly(ethylene oxide),Homopolymer,Toluene,C7H8,,,a,4000000,,,,,,,18,343.4,173.61,,,,55,5.28
109,Poly(ethylene oxide),Homopolymer,Toluene,C7H8,,,a,4000000,,,,,,,18,348.4,145.25,,,,55,5.28
109,Poly(ethylene oxide),Homopolymer,Toluene,C7H8,,,a,4000000,,,,,,,18,361.4,97.52,,,,55,5.08
109,Poly(ethylene oxide),Homopolymer,Toluene,C7H8,,,a,4000000,,,,,,,18,375.1,62.71,,,,55,5.18
109,Poly(ethylene oxide),Homopolymer,Toluene,C7H8,,,a,4000000,,,,,,,18,398.9,33.49,,,,55,5.1
109,Poly(ethylene oxide),Homopolymer,Toluene,C7H8,,,a,4000000,,,,,,,18,423.7,18.68,,,,55,5.51
109,Poly(ethylene oxide),Homopolymer,Toluene,C7H8,,,,,,4000000,,,,,19,323.2,329,,,,10,6.17
109,Poly(ethylene oxide),Homopolymer,Toluene,C7H8,,,,,,4000000,,,,,19,348.2,143,,,,10,5.4
109,Poly(ethylene oxide),Homopolymer,Toluene,C7H8,,,,,,4000000,,,,,19,361.2,90.4,,,,10,5.51
109,Poly(ethylene oxide),Homopolymer,Toluene,C7H8,,,,,,4000000,,,,,19,374.8,66.8,,,,10,4.91
109,Poly(ethylene oxide),Homopolymer,Toluene,C7H8,,,,,,4000000,,,,,19,398.2,34,,,,10,5.11
109,Poly(ethylene oxide),Homopolymer,Toluene,C7H8,,,,,,4000000,,,,,19,423.2,17.4,,,,10,5.58
109,Poly(ethylene oxide),Homopolymer,2-Heptene,C7H14,,1000,,,,,,,,,17,343.4,22.1,,,,96,22.6
109,Poly(ethylene oxide),Homopolymer,2-Heptene,C7H14,,1000,,,,,,,,,17,352.4,17.4,,,,96,21.4
109,Poly(ethylene oxide),Homopolymer,3-Heptanone,C7H14O,,1000,,,,,,,,,17,352.4,264,,,,96,
109,Poly(ethylene oxide),Homopolymer,Heptane,C7H16,,600,,,,,,,,,23,343.4,,,39,U,96,40.2
109,Poly(ethylene oxide),Homopolymer,Heptane,C7H16,,1000,,,,,,,,,17,343.4,16.3,,,,96,35.2
109,Poly(ethylene oxide),Homopolymer,Heptane,C7H16,,1000,,,,,,,,,17,352.4,12.7,,,,96,33.4
110,Poly(ethylene oxide),Homopolymer,Heptane,C7H16,,2100,,,,,,,,,24,343.4,,,29.6,U,96,30.5
110,Poly(ethylene oxide),Homopolymer,Heptane,C7H16,,3600,,,,,,,,,25,343.4,,,28.8,U,96,29.7
110,Poly(ethylene oxide),Homopolymer,Heptane,C7H16,,4000,,,,,,,,,28,334.7,,,34.95,C,90,
110,Poly(ethylene oxide),Homopolymer,Heptane,C7H16,,4000,,,,,,,,,28,343.6,,,33.55,C,90,
110,Poly(ethylene oxide),Homopolymer,Heptane,C7H16,,4000,,,,,,,,,28,353.5,,,32.14,C,90,
110,Poly(ethylene oxide),Homopolymer,Heptane,C7H16,,4000,,,,,,,,,28,363.5,,,33.15,C,90,
110,Poly(ethylene oxide),Homopolymer,Heptane,C7H16,,4000,,,,,,,,,26,343.4,,,28.1,U,96,28.9
110,Poly(ethylene oxide),Homopolymer,Heptane,C7H16,,7500,,,,,,,,,29,345,,,32.1,C,90,
110,Poly(ethylene oxide),Homopolymer,Heptane,C7H16,,7500,,,,,,,,,29,353.7,,,31.09,C,90,
110,Poly(ethylene oxide),Homopolymer,Heptane,C7H16,,7500,,,,,,,,,29,364.2,,,30.39,C,90,
110,Poly(ethylene oxide),Homopolymer,Heptane,C7H16,,7500,,,,,,,,,29,372.7,,,29.11,C,90,
110,Poly(ethylene oxide),Homopolymer,Heptane,C7H16,,10000,,,,,,,,,30,344.2,,,28.73,C,90,
110,Poly(ethylene oxide),Homopolymer,Heptane,C7H16,,10000,,,,,,,,,30,352.3,,,27.44,C,90,
110,Poly(ethylene oxide),Homopolymer,Heptane,C7H16,,10000,,,,,,,,,30,362.6,,,26.08,C,90,
110,Poly(ethylene oxide),Homopolymer,Heptane,C7H16,,10000,,,,,,,,,30,372.3,,,24.24,C,90,
110,Poly(ethylene oxide),Homopolymer,Heptane,C7H16,,10700,,11450,,,,,,,,343.2,17.87,,,,71,32.3
110,Poly(ethylene oxide),Homopolymer,Heptane,C7H16,,10700,,11450,,,,,,,,373.2,8.44,,,,71,26.9
110,Poly(ethylene oxide),Homopolymer,Heptane,C7H16,,10700,,11450,,,,,,,,393.2,5.46,,,,71,24.7
110,Poly(ethylene oxide),Homopolymer,Heptane,C7H16,,10800,,,,,,,,,27,343.4,,,27.4,U,96,28.2
110,Poly(ethylene oxide),Homopolymer,"Benzene, 1,2-dimethyl",C8H10,,200,,218,,,,,,,,348.2,258.9,,,,64,8.04
110,Poly(ethylene oxide),Homopolymer,"Benzene, 1,2-dimethyl",C8H10,,200,,218,,,,,,,,373.2,112.5,,,,64,7.3
110,Poly(ethylene oxide),Homopolymer,"Benzene, 1,2-dimethyl",C8H10,,200,,218,,,,,,,,398.2,55.7,,,,64,6.72
110,Poly(ethylene oxide),Homopolymer,"Benzene, 1,2-dimethyl",C8H10,,300,,327,,,,,,,,348.2,308.1,,,,64,6.75
110,Poly(ethylene oxide),Homopolymer,"Benzene, 1,2-dimethyl",C8H10,,300,,327,,,,,,,,373.2,133.1,,,,64,6.17
110,Poly(ethylene oxide),Homopolymer,"Benzene, 1,2-dimethyl",C8H10,,300,,327,,,,,,,,398.2,64.8,,,,64,5.78
110,Poly(ethylene oxide),Homopolymer,"Benzene, 1,2-dimethyl",C8H10,,400,,436,,,,,,,,348.2,334.9,,,,64,6.21
110,Poly(ethylene oxide),Homopolymer,"Benzene, 1,2-dimethyl",C8H10,,400,,436,,,,,,,,373.2,142.3,,,,64,5.77
111,Poly(ethylene oxide),Homopolymer,"Benzene, 1,2-dimethyl",C8H10,,400,,436,,,,,,,,398.2,68.1,,,,64,5.5
111,Poly(ethylene oxide),Homopolymer,"Benzene, 1,2-dimethyl",C8H10,,600,,654,,,,,,,,348.2,356.1,,,,64,5.84
111,Poly(ethylene oxide),Homopolymer,"Benzene, 1,2-dimethyl",C8H10,,600,,654,,,,,,,,373.2,146.4,,,,64,5.61
111,Poly(ethylene oxide),Homopolymer,"Benzene, 1,2-dimethyl",C8H10,,600,,654,,,,,,,,398.2,70.6,,,,64,5.3
111,Poly(ethylene oxide),Homopolymer,"Benzene, 1,2-dimethyl",C8H10,,1000,,1090,,,,,,,,348.2,387.8,,,,64,5.37
111,Poly(ethylene oxide),Homopolymer,"Benzene, 1,2-dimethyl",C8H10,,1000,,1090,,,,,,,,373.2,159.9,,,,64,5.14
111,Poly(ethylene oxide),Homopolymer,"Benzene, 1,2-dimethyl",C8H10,,1000,,1090,,,,,,,,398.2,76.5,,,,64,4.9
111,Poly(ethylene oxide),Homopolymer,"Benzene, 1,2-dimethyl",C8H10,,2000,,2180,,,,,,,,348.2,411.2,,,,64,5.06
111,Poly(ethylene oxide),Homopolymer,"Benzene, 1,2-dimethyl",C8H10,,2000,,2180,,,,,,,,373.2,168.3,,,,64,4.88
111,Poly(ethylene oxide),Homopolymer,"Benzene, 1,2-dimethyl",C8H10,,2000,,2180,,,,,,,,398.2,79.2,,,,64,4.73
111,Poly(ethylene oxide),Homopolymer,"Benzene, 1,2-dimethyl",C8H10,,,a,4000000,,,,,,,18,343.4,430.53,,,,55,5.89
111,Poly(ethylene oxide),Homopolymer,"Benzene, 1,2-dimethyl",C8H10,,,a,4000000,,,,,,,18,348.4,356.61,,,,55,5.79
111,Poly(ethylene oxide),Homopolymer,"Benzene, 1,2-dimethyl",C8H10,,,a,4000000,,,,,,,18,361.4,228,,,,55,5.48
111,Poly(ethylene oxide),Homopolymer,"Benzene, 1,2-dimethyl",C8H10,,,a,4000000,,,,,,,18,375.1,142.68,,,,55,5.4
111,Poly(ethylene oxide),Homopolymer,"Benzene, 1,2-dimethyl",C8H10,,,a,4000000,,,,,,,18,398.9,72.59,,,,55,5.06
111,Poly(ethylene oxide),Homopolymer,"Benzene, 1,2-dimethyl",C8H10,,,a,4000000,,,,,,,18,423.7,36.3,,,,55,5.21
111,Poly(ethylene oxide),Homopolymer,"Benzene, 1,3-dimethyl",C8H10,,600,,,,,,,,,23,343.4,,,6.93,U,96,7.01
111,Poly(ethylene oxide),Homopolymer,"Benzene, 1,3-dimethyl",C8H10,,1000,,,,,,,,,17,343.4,330,,,,96,6.42
111,Poly(ethylene oxide),Homopolymer,"Benzene, 1,3-dimethyl",C8H10,,1000,,,,,,,,,17,352.4,233,,,,96,6.36
111,Poly(ethylene oxide),Homopolymer,"Benzene, 1,3-dimethyl",C8H10,,2100,,,,,,,,,24,343.4,,,5.83,U,96,5.9
111,Poly(ethylene oxide),Homopolymer,"Benzene, 1,3-dimethyl",C8H10,,3600,,,,,,,,,25,343.4,,,5.48,U,96,5.54
111,Poly(ethylene oxide),Homopolymer,"Benzene, 1,3-dimethyl",C8H10,,4000,,,,,,,,,26,343.4,,,5.44,U,96,5.5
111,Poly(ethylene oxide),Homopolymer,"Benzene, 1,3-dimethyl",C8H10,,10800,,,,,,,,,27,343.4,,,5.45,U,96,5.51
111,Poly(ethylene oxide),Homopolymer,"Benzene, 1,4-dimethyl",C8H10,,200,,218,,,,,,,,348.2,187.5,,,,64,9
111,Poly(ethylene oxide),Homopolymer,"Benzene, 1,4-dimethyl",C8H10,,200,,218,,,,,,,,373.2,83.7,,,,64,8.17
112,Poly(ethylene oxide),Homopolymer,"Benzene, 1,4-dimethyl",C8H10,,200,,218,,,,,,,,398.2,42.6,,,,64,7.47
112,Poly(ethylene oxide),Homopolymer,"Benzene, 1,4-dimethyl",C8H10,,300,,327,,,,,,,,348.2,224,,,,64,7.54
112,Poly(ethylene oxide),Homopolymer,"Benzene, 1,4-dimethyl",C8H10,,300,,327,,,,,,,,373.2,100.1,,,,64,6.83
112,Poly(ethylene oxide),Homopolymer,"Benzene, 1,4-dimethyl",C8H10,,300,,327,,,,,,,,398.2,49.8,,,,64,6.39
112,Poly(ethylene oxide),Homopolymer,"Benzene, 1,4-dimethyl",C8H10,,400,,436,,,,,,,,348.2,244.2,,,,64,6.91
112,Poly(ethylene oxide),Homopolymer,"Benzene, 1,4-dimethyl",C8H10,,400,,436,,,,,,,,373.2,106.7,,,,64,6.41
112,Poly(ethylene oxide),Homopolymer,"Benzene, 1,4-dimethyl",C8H10,,400,,436,,,,,,,,398.2,52.4,,,,64,6.07
112,Poly(ethylene oxide),Homopolymer,"Benzene, 1,4-dimethyl",C8H10,,600,,654,,,,,,,,348.2,268.2,,,,64,6.29
112,Poly(ethylene oxide),Homopolymer,"Benzene, 1,4-dimethyl",C8H10,,600,,654,,,,,,,,373.2,109.7,,,,64,6.23
112,Poly(ethylene oxide),Homopolymer,"Benzene, 1,4-dimethyl",C8H10,,600,,654,,,,,,,,398.2,54.7,,,,64,5.82
112,Poly(ethylene oxide),Homopolymer,"Benzene, 1,4-dimethyl",C8H10,,1000,,1090,,,,,,,,348.2,283.2,,,,64,5.96
112,Poly(ethylene oxide),Homopolymer,"Benzene, 1,4-dimethyl",C8H10,,1000,,1090,,,,,,,,373.2,120.8,,,,64,5.66
112,Poly(ethylene oxide),Homopolymer,"Benzene, 1,4-dimethyl",C8H10,,1000,,1090,,,,,,,,398.2,59.2,,,,64,5.38
112,Poly(ethylene oxide),Homopolymer,"Benzene, 1,4-dimethyl",C8H10,,2000,,2180,,,,,,,,348.2,300.8,,,,64,5.61
112,Poly(ethylene oxide),Homopolymer,"Benzene, 1,4-dimethyl",C8H10,,2000,,2180,,,,,,,,373.2,126.5,,,,64,5.41
112,Poly(ethylene oxide),Homopolymer,"Benzene, 1,4-dimethyl",C8H10,,2000,,2180,,,,,,,,398.2,61,,,,64,5.22
112,Poly(ethylene oxide),Homopolymer,"Benzene, ethyl",C8H10,,10700,,11450,,,,,,,,373.2,117,,,,71,5.45
112,Poly(ethylene oxide),Homopolymer,"Benzene, ethyl",C8H10,,10700,,11450,,,,,,,,393.2,63.6,,,,71,5.41
112,Poly(ethylene oxide),Homopolymer,Octane,C8H18,,200,,218,,,,,,,,348.2,15.7,,,,64,67.5
112,Poly(ethylene oxide),Homopolymer,Octane,C8H18,,200,,218,,,,,,,,373.2,8.9,,,,64,49.6
112,Poly(ethylene oxide),Homopolymer,Octane,C8H18,,200,,218,,,,,,,,398.2,5.4,,,,64,39.1
112,Poly(ethylene oxide),Homopolymer,Octane,C8H18,,300,,327,,,,,,,,348.2,20.3,,,,64,52.2
112,Poly(ethylene oxide),Homopolymer,Octane,C8H18,,300,,327,,,,,,,,373.2,11.6,,,,64,38
112,Poly(ethylene oxide),Homopolymer,Octane,C8H18,,300,,327,,,,,,,,398.2,6.7,,,,64,31.5