Page,Solute,Solute_type,Solvent,Solvent_formula,MN_symbol,MN,MW_symbol,MW,MV_symbol,MV,per composition,per substitution,Tg_symbol,Tg (K),Note,T (K),Vg (cm3/g),chi_inf,omega_inf,U/C,Ref,calc_omega_inf
152,Poly(methyl methacrylate),Homopolymer,Benzene,C6H6,,,,,,,,,,378.15,,448.2,5.2,,,,2,7.01
152,Poly(methyl methacrylate),Homopolymer,Aniline,C6H7N,,6107,,6412,,,,,,,,423,135.093,,,,99,4.82
152,Poly(methyl methacrylate),Homopolymer,Aniline,C6H7N,,6107,,6412,,,,,,,,448,72.48,,,,99,4.43
152,Poly(methyl methacrylate),Homopolymer,Aniline,C6H7N,,6107,,6412,,,,,,,,473,38.832,,,,99,4.5
152,Poly(methyl methacrylate),Homopolymer,Cyclohexanone,C6H10O,,6107,,6412,,,,,,,,423,29.368,,,,99,9.42
152,Poly(methyl methacrylate),Homopolymer,Cyclohexanone,C6H10O,,6107,,6412,,,,,,,,448,22.734,,,,99,6.7
152,Poly(methyl methacrylate),Homopolymer,Cyclohexanone,C6H10O,,6107,,6412,,,,,,,,473,14.862,,,,99,6.1
152,Poly(methyl methacrylate),Homopolymer,Cyclohexanone,C6H10O,,,,,,,,,,,,473.2,16.11,,,,44,5.62
152,Poly(methyl methacrylate),Homopolymer,Cyclohexanol,C6H12O,,,,,,,,,,,,473.2,15.67,,,,44,5.19
152,Poly(methyl methacrylate),Homopolymer,Hexanone (isomer not specified),C6H12O,,,,,,,,,,,,298.2,,1.556,,C,32,
152,Poly(methyl methacrylate),Homopolymer,Hexanone (isomer not specified),C6H12O,,,,,,,,,,,,323.7,,1.101,,C,32,
152,Poly(methyl methacrylate),Homopolymer,Hexanone (isomer not specified),C6H12O,,,,,,,,,,,,345.6,,0.982,,C,32,
152,Poly(methyl methacrylate),Homopolymer,Hexanone (isomer not specified),C6H12O,,,,,,,,,,,,363.7,,0.759,,C,32,
152,Poly(methyl methacrylate),Homopolymer,Hexanone (isomer not specified),C6H12O,,,,,,,,,,,,383.7,,0.719,,C,32,
152,Poly(methyl methacrylate),Homopolymer,Hexanone (isomer not specified),C6H12O,,,,,,,,,,,,428.7,,0.86,,C,32,
152,Poly(methyl methacrylate),Homopolymer,"2-Pentanone, 4-methyl",C6H12O,,6107,,6412,,,,,,,,423,7.384,,,,99,14.2
152,Poly(methyl methacrylate),Homopolymer,"2-Pentanone, 4-methyl",C6H12O,,6107,,6412,,,,,,,,448,5.757,,,,99,10.9
152,Poly(methyl methacrylate),Homopolymer,"2-Pentanone, 4-methyl",C6H12O,,6107,,6412,,,,,,,,473,4.407,,,,99,9.18
153,Poly(methyl methacrylate),Homopolymer,Benzaldehyde,C7H6O,,6107,,6412,,,,,,,,423,76.227,,,,99,6.29
153,Poly(methyl methacrylate),Homopolymer,Benzaldehyde,C7H6O,,6107,,6412,,,,,,,,448,45.149,,,,99,5.33
153,Poly(methyl methacrylate),Homopolymer,Benzaldehyde,C7H6O,,6107,,6412,,,,,,,,473,25.611,,,,99,5.17
153,Poly(methyl methacrylate),Homopolymer,Toluene,C7H8,,6107,,6412,,,,,,,,423,11.337,,,,99,8.6
153,Poly(methyl methacrylate),Homopolymer,Toluene,C7H8,,6107,,6412,,,,,,,,448,7.784,,,,99,7.61
153,Poly(methyl methacrylate),Homopolymer,Toluene,C7H8,,6107,,6412,,,,,,,,473,4.985,,,,99,7.74
153,Poly(methyl methacrylate),Homopolymer,Toluene,C7H8,,19770,,,,,,,,,38,316.4,312.8,,,,87,8.73
153,Poly(methyl methacrylate),Homopolymer,Toluene,C7H8,,100000,,,,,,,,371,37,423,17,,,,79,5.73
153,Poly(methyl methacrylate),Homopolymer,Toluene,C7H8,,,,,,,,,,378.15,,398.2,19.8,,,,2,8.77
153,Poly(methyl methacrylate),Homopolymer,Toluene,C7H8,,,,,,,,,,378.15,,423.2,12.6,,,,2,7.71
153,Poly(methyl methacrylate),Homopolymer,Toluene,C7H8,,,,,,,,,,378.15,,448.2,7.9,,,,2,7.48
153,Poly(methyl methacrylate),Homopolymer,Toluene,C7H8,,,,,,,,,,,,298.2,,0.947,,C,32,
153,Poly(methyl methacrylate),Homopolymer,Toluene,C7H8,,,,,,,,,,,,323.7,,0.612,,C,32,
153,Poly(methyl methacrylate),Homopolymer,Toluene,C7H8,,,,,,,,,,,,345.6,,0.495,,C,32,
153,Poly(methyl methacrylate),Homopolymer,Toluene,C7H8,,,,,,,,,,,,363.7,,0.423,,C,32,
153,Poly(methyl methacrylate),Homopolymer,Toluene,C7H8,,,,,,,,,,,,383.7,,0.454,,C,32,
153,Poly(methyl methacrylate),Homopolymer,Toluene,C7H8,,,,,,,,,,,,428.7,,0.83,,C,32,
153,Poly(methyl methacrylate),Homopolymer,Benzyl alcohol,C7H8O,,6107,,6412,,,,,,,,423,213.186,,,,99,5.55
153,Poly(methyl methacrylate),Homopolymer,Benzyl alcohol,C7H8O,,6107,,6412,,,,,,,,448,104.698,,,,99,4.79
153,Poly(methyl methacrylate),Homopolymer,Benzyl alcohol,C7H8O,,6107,,6412,,,,,,,,473,53.118,,,,99,4.53
153,Poly(methyl methacrylate),Homopolymer,Acetophenone,C8H8O,,,,,,,,,,,,473.2,41.21,,,,44,5.07
154,Poly(methyl methacrylate),Homopolymer,"Benzene, 1,4-dimethyl",C8H10,,6107,,6412,,,,,,,,423,17.123,,,,99,9.7
154,Poly(methyl methacrylate),Homopolymer,"Benzene, 1,4-dimethyl",C8H10,,6107,,6412,,,,,,,,448,10.961,,,,99,8.62
154,Poly(methyl methacrylate),Homopolymer,"Benzene, 1,4-dimethyl",C8H10,,6107,,6412,,,,,,,,473,7.168,,,,99,8.07
154,Poly(methyl methacrylate),Homopolymer,"Benzene, 1,4-dimethyl",C8H10,,,,,,,,,,378.15,,398.2,32,,,,2,9.95
154,Poly(methyl methacrylate),Homopolymer,"Benzene, 1,4-dimethyl",C8H10,,,,,,,,,,378.15,,423.2,19.1,,,,2,8.67
154,Poly(methyl methacrylate),Homopolymer,"Benzene, 1,4-dimethyl",C8H10,,,,,,,,,,378.15,,448.2,11.8,,,,2,7.98
154,Poly(methyl methacrylate),Homopolymer,"Benzene, ethyl",C8H10,,6107,,6412,,,,,,,,423,16.795,,,,99,9.36
154,Poly(methyl methacrylate),Homopolymer,"Benzene, ethyl",C8H10,,6107,,6412,,,,,,,,448,10.731,,,,99,8.42
154,Poly(methyl methacrylate),Homopolymer,"Benzene, ethyl",C8H10,,6107,,6412,,,,,,,,473,6.979,,,,99,8.03
154,Poly(methyl methacrylate),Homopolymer,"Benzene, ethyl",C8H10,,100000,,,,,,,,371,37,423,26,,,,79,6.04
154,Poly(methyl methacrylate),Homopolymer,"Octane, 1-chloro",C8H17Cl,,,,,,,,,,,,473.2,,,10.51,U,44,
154,Poly(methyl methacrylate),Homopolymer,Octane,C8H18,,100000,,,,,,,,371,37,423,3.3,,,,79,34.4
154,Poly(methyl methacrylate),Homopolymer,Nonane,C9H20,,100000,,,,,,,,371,37,423,5.9,,,,79,32.1
154,Poly(methyl methacrylate),Homopolymer,Tetralin,C10H12,,,,,,,,,,,,473.2,31.07,,,,44,6.78
154,Poly(methyl methacrylate),Homopolymer,"Benzene, butyl",C10H14,,6107,,6412,,,,,,,,423,39.786,,,,99,10.5
154,Poly(methyl methacrylate),Homopolymer,"Benzene, butyl",C10H14,,6107,,6412,,,,,,,,448,22.486,,,,99,9.54
154,Poly(methyl methacrylate),Homopolymer,"Benzene, butyl",C10H14,,6107,,6412,,,,,,,,473,13.478,,,,99,8.99
155,Poly(methyl methacrylate),Homopolymer,"Benzene, butyl",C10H14,,,,,,,,,,,,473.2,13.99,,,,44,8.63
155,Poly(methyl methacrylate),Homopolymer,"Decane, 1-chloro",C10H21Cl,,,,,,,,,,,,473.2,,,11.46,U,44,
155,Poly(methyl methacrylate),Homopolymer,Decane,C10H22,,100000,,,,,,,,371,37,423,6.8,,,,79,46.8
155,Poly(methyl methacrylate),Homopolymer,Dodecane,C12H26,,6107,,6412,,,,,,,,423,20.611,,,,99,43.5
155,Poly(methyl methacrylate),Homopolymer,Dodecane,C12H26,,6107,,6412,,,,,,,,448,13.114,,,,99,31.1
155,Poly(methyl methacrylate),Homopolymer,Dodecane,C12H26,,6107,,6412,,,,,,,,473,7.918,,,,99,26.2
155,Poly(methyl methacrylate),Homopolymer,Dodecane,C12H26,,100000,,,,,,,,371,37,423,21,,,,79,42.7
155,Poly(methyl methacrylate),Homopolymer,Tetradecane,C14H30,,6107,,6412,,,,,,,,423,51.223,,,,99,49.7
155,Poly(methyl methacrylate),Homopolymer,Tetradecane,C14H30,,6107,,6412,,,,,,,,448,27.544,,,,99,37.1
155,Poly(methyl methacrylate),Homopolymer,Tetradecane,C14H30,,6107,,6412,,,,,,,,473,15.456,,,,99,30.2
155,Poly(methyl methacrylate),Homopolymer,Tetradecane,C14H30,,,,,,,,,,,,473.2,15.05,,,,44,30.8
155,Poly(methyl methacrylate),Homopolymer,Hexadecane,C16H34,,6107,,6412,,,,,,,,423,124.315,,,,99,58
155,Poly(methyl methacrylate),Homopolymer,Hexadecane,C16H34,,6107,,6412,,,,,,,,448,62.716,,,,99,40.9
155,Poly(methyl methacrylate),Homopolymer,Hexadecane,C16H34,,6107,,6412,,,,,,,,473,30.869,,,,99,34.1
156,Poly(N-(n-octadecyl)maleimide),Homopolymer,1-Hexanol,C6H14O,,190000,,330600,,,,,,386.5,,403.2,,,4.45,C,80,
156,Poly(N-(n-octadecyl)maleimide),Homopolymer,1-Hexanol,C6H14O,,190000,,330600,,,,,,386.5,,413.2,,,4.01,C,80,
156,Poly(N-(n-octadecyl)maleimide),Homopolymer,1-Hexanol,C6H14O,,190000,,330600,,,,,,386.5,,423.2,,,3.6,C,80,
156,Poly(N-(n-octadecyl)maleimide),Homopolymer,1-Hexanol,C6H14O,,190000,,330600,,,,,,386.5,,433.2,,,3.27,C,80,
156,Poly(N-(n-octadecyl)maleimide),Homopolymer,1-Hexanol,C6H14O,,190000,,330600,,,,,,386.5,,443.2,,,3.03,C,80,
156,Poly(N-(n-octadecyl)maleimide),Homopolymer,1-Heptanol,C7H16O,,190000,,330600,,,,,,386.5,,403.2,,,4.33,C,80,
156,Poly(N-(n-octadecyl)maleimide),Homopolymer,1-Heptanol,C7H16O,,190000,,330600,,,,,,386.5,,413.2,,,3.91,C,80,
156,Poly(N-(n-octadecyl)maleimide),Homopolymer,1-Heptanol,C7H16O,,190000,,330600,,,,,,386.5,,423.2,,,3.52,C,80,
156,Poly(N-(n-octadecyl)maleimide),Homopolymer,1-Heptanol,C7H16O,,190000,,330600,,,,,,386.5,,433.2,,,3.25,C,80,
156,Poly(N-(n-octadecyl)maleimide),Homopolymer,1-Heptanol,C7H16O,,190000,,330600,,,,,,386.5,,443.2,,,3.03,C,80,
156,Poly(N-(n-octadecyl)maleimide),Homopolymer,1-Octanol,C8H18O,,190000,,330600,,,,,,386.5,,403.2,,,4.13,C,80,
156,Poly(N-(n-octadecyl)maleimide),Homopolymer,1-Octanol,C8H18O,,190000,,330600,,,,,,386.5,,413.2,,,3.79,C,80,
156,Poly(N-(n-octadecyl)maleimide),Homopolymer,1-Octanol,C8H18O,,190000,,330600,,,,,,386.5,,423.2,,,3.46,C,80,
156,Poly(N-(n-octadecyl)maleimide),Homopolymer,1-Octanol,C8H18O,,190000,,330600,,,,,,386.5,,433.2,,,3.12,C,80,
156,Poly(N-(n-octadecyl)maleimide),Homopolymer,1-Octanol,C8H18O,,190000,,330600,,,,,,386.5,,443.2,,,2.92,C,80,
156,Poly(N-(n-octadecyl)maleimide),Homopolymer,Nonane,C9H20,,190000,,330600,,,,,,386.5,,403.2,,,5.21,C,80,
156,Poly(N-(n-octadecyl)maleimide),Homopolymer,Nonane,C9H20,,190000,,330600,,,,,,386.5,,413.2,,,4.84,C,80,
156,Poly(N-(n-octadecyl)maleimide),Homopolymer,Nonane,C9H20,,190000,,330600,,,,,,386.5,,423.2,,,4.58,C,80,
156,Poly(N-(n-octadecyl)maleimide),Homopolymer,Nonane,C9H20,,190000,,330600,,,,,,386.5,,433.2,,,4.25,C,80,
156,Poly(N-(n-octadecyl)maleimide),Homopolymer,Nonane,C9H20,,190000,,330600,,,,,,386.5,,443.2,,,4.45,C,80,
156,Poly(N-(n-octadecyl)maleimide),Homopolymer,Decane,C10H22,,190000,,330600,,,,,,386.5,,403.2,,,4.9,C,80,
157,Poly(N-(n-octadecyl)maleimide),Homopolymer,Decane,C10H22,,190000,,330600,,,,,,386.5,,413.2,,,4.54,C,80,
157,Poly(N-(n-octadecyl)maleimide),Homopolymer,Decane,C10H22,,190000,,330600,,,,,,386.5,,423.2,,,4.29,C,80,
157,Poly(N-(n-octadecyl)maleimide),Homopolymer,Decane,C10H22,,190000,,330600,,,,,,386.5,,433.2,,,4.02,C,80,
157,Poly(N-(n-octadecyl)maleimide),Homopolymer,Decane,C10H22,,190000,,330600,,,,,,386.5,,443.2,,,4.51,C,80,
157,Poly(N-(n-octadecyl)maleimide),Homopolymer,1-Decanol,C10H22O,,190000,,330600,,,,,,386.5,,403.2,,,3.74,C,80,
157,Poly(N-(n-octadecyl)maleimide),Homopolymer,1-Decanol,C10H22O,,190000,,330600,,,,,,386.5,,413.2,,,3.47,C,80,
157,Poly(N-(n-octadecyl)maleimide),Homopolymer,1-Decanol,C10H22O,,190000,,330600,,,,,,386.5,,423.2,,,3.19,C,80,
157,Poly(N-(n-octadecyl)maleimide),Homopolymer,1-Decanol,C10H22O,,190000,,330600,,,,,,386.5,,433.2,,,2.99,C,80,
157,Poly(N-(n-octadecyl)maleimide),Homopolymer,1-Decanol,C10H22O,,190000,,330600,,,,,,386.5,,443.2,,,2.88,C,80,
157,Poly(N-(n-octadecyl)maleimide),Homopolymer,Undecane,C11H24,,190000,,330600,,,,,,386.5,,403.2,,,4.36,C,80,
157,Poly(N-(n-octadecyl)maleimide),Homopolymer,Undecane,C11H24,,190000,,330600,,,,,,386.5,,413.2,,,4.01,C,80,
157,Poly(N-(n-octadecyl)maleimide),Homopolymer,Undecane,C11H24,,190000,,330600,,,,,,386.5,,423.2,,,3.77,C,80,
157,Poly(N-(n-octadecyl)maleimide),Homopolymer,Undecane,C11H24,,190000,,330600,,,,,,386.5,,433.2,,,3.4,C,80,
157,Poly(N-(n-octadecyl)maleimide),Homopolymer,Undecane,C11H24,,190000,,330600,,,,,,386.5,,443.2,,,3.75,C,80,
157,Poly(N-(n-octadecyl)maleimide),Homopolymer,Dodecane,C12H26,,190000,,330600,,,,,,386.5,,403.2,,,4.23,C,80,
157,Poly(N-(n-octadecyl)maleimide),Homopolymer,Dodecane,C12H26,,190000,,330600,,,,,,386.5,,413.2,,,3.94,C,80,
157,Poly(N-(n-octadecyl)maleimide),Homopolymer,Dodecane,C12H26,,190000,,330600,,,,,,386.5,,423.2,,,3.68,C,80,
157,Poly(N-(n-octadecyl)maleimide),Homopolymer,Dodecane,C12H26,,190000,,330600,,,,,,386.5,,433.2,,,3.37,C,80,
157,Poly(N-(n-octadecyl)maleimide),Homopolymer,Dodecane,C12H26,,190000,,330600,,,,,,386.5,,443.2,,,3.26,C,80,
157,Poly(N-(n-octadecyl)maleimide),Homopolymer,Tridecane,C13H28,,190000,,330600,,,,,,386.5,,403.2,,,4.18,C,80,
157,Poly(N-(n-octadecyl)maleimide),Homopolymer,Tridecane,C13H28,,190000,,330600,,,,,,386.5,,413.2,,,3.86,C,80,
158,Poly(N-(n-octadecyl)maleimide),Homopolymer,Tridecane,C13H28,,190000,,330600,,,,,,386.5,,423.2,,,3.61,C,80,
158,Poly(N-(n-octadecyl)maleimide),Homopolymer,Tridecane,C13H28,,190000,,330600,,,,,,386.5,,433.2,,,3.33,C,80,
158,Poly(N-(n-octadecyl)maleimide),Homopolymer,Tridecane,C13H28,,190000,,330600,,,,,,386.5,,443.2,,,3.26,C,80,
159,Poly(ethylene oxide),Homopolymer,"1,2,3-Propanetriyl trinitrate",C3H5N3O9,,1570,,,,,,,,,,402.1,25973,,,,82,
159,Poly(ethylene oxide),Homopolymer,"1,2,3-Propanetriyl trinitrate",C3H5N3O9,,1570,,,,,,,,,,411.8,14290,,,,82,
159,Poly(ethylene oxide),Homopolymer,"1,2,3-Propanetriyl trinitrate",C3H5N3O9,,1570,,,,,,,,,,421.6,8407,,,,82,
159,Poly(ethylene oxide),Homopolymer,"1,2,3-Propanetriyl trinitrate",C3H5N3O9,,1570,,,,,,,,,,431.1,5201,,,,82,
159,Poly(ethylene oxide),Homopolymer,"1,2,4-Butanetriyl trinitrate",C4H7N3O9,,1570,,,,,,,,,,402.1,62207,,,,82,
159,Poly(ethylene oxide),Homopolymer,"1,2,4-Butanetriyl trinitrate",C4H7N3O9,,1570,,,,,,,,,,411.8,33757,,,,82,
159,Poly(ethylene oxide),Homopolymer,"1,2,4-Butanetriyl trinitrate",C4H7N3O9,,1570,,,,,,,,,,421.6,19225,,,,82,
159,Poly(ethylene oxide),Homopolymer,"1,2,4-Butanetriyl trinitrate",C4H7N3O9,,1570,,,,,,,,,,431.1,11334,,,,82,
159,Poly(ethylene oxide),Homopolymer,Glycerol triacetate,C9H14O6,,1570,,,,,,,,,,402.1,5182,,,,81,2.32
159,Poly(ethylene oxide),Homopolymer,Glycerol triacetate,C9H14O6,,1570,,,,,,,,,,411.8,3148,,,,81,2.34
159,Poly(ethylene oxide),Homopolymer,Glycerol triacetate,C9H14O6,,1570,,,,,,,,,,421.6,1958,,,,81,2.36
159,Poly(ethylene oxide),Homopolymer,Glycerol triacetate,C9H14O6,,1570,,,,,,,,,,431.1,1285,,,,81,2.35
160,"Poly(oxy-3-(2-methoxyethoxy) propyleneoxysuccinyl), alpha,omega-dihydroxy",Homopolymer,Glycerol triacetate,C9H14O6,,1820,,,,,,,,,,402.1,3837,,,,81,3.14
160,"Poly(oxy-3-(2-methoxyethoxy) propyleneoxysuccinyl), alpha,omega-dihydroxy",Homopolymer,Glycerol triacetate,C9H14O6,,1820,,,,,,,,,,411.8,2483,,,,81,2.97
160,"Poly(oxy-3-(2-methoxyethoxy) propyleneoxysuccinyl), alpha,omega-dihydroxy",Homopolymer,Glycerol triacetate,C9H14O6,,1820,,,,,,,,,,421.6,1620,,,,81,2.86
160,"Poly(oxy-3-(2-methoxyethoxy) propyleneoxysuccinyl), alpha,omega-dihydroxy",Homopolymer,Glycerol triacetate,C9H14O6,,1820,,,,,,,,,,431.1,1002,,,,81,3.02
161,"Polyoxypropylene, alpha,omega-dihydroxy",Homopolymer,Glycerol triacetate,C9H14O6,,2010,,,,,,,,,,411.8,2371,,,,81,3.11
161,"Polyoxypropylene, alpha,omega-dihydroxy",Homopolymer,Glycerol triacetate,C9H14O6,,2010,,,,,,,,,,421.6,1550,,,,81,2.99
161,"Polyoxypropylene, alpha,omega-dihydroxy",Homopolymer,Glycerol triacetate,C9H14O6,,2010,,,,,,,,,,431.1,1003,,,,81,3.01
162,Poly(n-pentyl methacrylate),Homopolymer,"Methane, trichloro",CHCl3,,80000,,,,,,,,,,393.2,19.2,,,,69,2.21
162,Poly(n-pentyl methacrylate),Homopolymer,"Acetic acid, nitrile",C2H3N,,80000,,,,,,,,,,393.2,12.5,,,,69,17.3
162,Poly(n-pentyl methacrylate),Homopolymer,2-Propanone,C3H6O,,80000,,,,,,,,,,393.2,5.8,,,,69,12.8
162,Poly(n-pentyl methacrylate),Homopolymer,1-Propanol,C3H8O,,80000,,,,,,,,,,393.2,13.5,,,,69,13.3
162,Poly(n-pentyl methacrylate),Homopolymer,2-Butanone,C4H8O,,80000,,,,,,,,,,393.2,12,,,,69,9.15
162,Poly(n-pentyl methacrylate),Homopolymer,"Acetic acid, ethyl ester",C4H8O2,,80000,,,,,,,,,,393.2,10.3,,,,69,8.05
162,Poly(n-pentyl methacrylate),Homopolymer,Hexane,C6H14,,80000,,,,,,,,,,393.2,8,,,,69,9.55
163,Poly(n-propyl acrylate),Homopolymer,"Methane, trichloro",CHCl3,,95000,,,,,,,,,,393.2,17.5,,,,69,2.43
163,Poly(n-propyl acrylate),Homopolymer,"Acetic acid, nitrile",C2H3N,,95000,,,,,,,,,,393.2,12.4,,,,69,17.4
163,Poly(n-propyl acrylate),Homopolymer,2-Propanone,C3H6O,,95000,,,,,,,,,,393.2,8,,,,69,9.31
163,Poly(n-propyl acrylate),Homopolymer,1-Propanol,C3H8O,,95000,,,,,,,,,,393.2,16.3,,,,69,11
163,Poly(n-propyl acrylate),Homopolymer,2-Butanone,C4H8O,,95000,,,,,,,,,,393.2,13.1,,,,69,8.38
163,Poly(n-propyl acrylate),Homopolymer,"Acetic acid, ethyl ester",C4H8O2,,95000,,,,,,,,,,393.2,11.5,,,,69,7.21
163,Poly(n-propyl acrylate),Homopolymer,Hexane,C6H14,,95000,,,,,,,,,,393.2,5,,,,69,15.3
164,Polypropylene,Homopolymer,"Butane, 2-methyl",C5H12,,,,,,,,,,,39,303.2,,0.91,,C,27,
164,Polypropylene,Homopolymer,Pentane,C5H12,,,,,,,,,,,39,303.2,,0.64,,C,27,
164,Polypropylene,Homopolymer,Benzene,C6H6,,,,,,,,,,,39,303.2,,0.74,,C,27,
164,Polypropylene,Homopolymer,Cyclohexane,C6H12,,,,,,,,,,,39,303.2,,0.44,,C,27,
164,Polypropylene,Homopolymer,Hexane,C6H14,,,,,,,,,,,39,303.2,,0.48,,C,27,
164,Polypropylene,Homopolymer,"Benzene, ethyl",C8H10,,,,,,,,,,,39,303.2,,0.72,,C,27,
164,Polypropylene,Homopolymer,Octane,C8H18,,,,,,,,,,,39,303.2,,0.55,,C,27,
164,Polypropylene,Homopolymer,"Pentane, 2,2,4-trimethyl",C8H18,,,,,,,,,,,39,303.2,,0.58,,C,27,
164,Polypropylene,Homopolymer,"Benzene, tert-butyl",C10H14,,,,,,,,,,,39,303.2,,0.61,,C,27,
164,Polypropylene,Homopolymer,Decane,C10H22,,,,,,,,,,,39,303.2,,0.29,,C,27,
165,Poly(n-propyl methacrylate),Homopolymer,"Methane, trichloro",CHCl3,,70000,,,,,,,,,,393.2,20.6,,,,69,2.06
165,Poly(n-propyl methacrylate),Homopolymer,"Acetic acid, nitrile",C2H3N,,70000,,,,,,,,,,393.2,11.9,,,,69,18.2
165,Poly(n-propyl methacrylate),Homopolymer,2-Propanone,C3H6O,,70000,,,,,,,,,,393.2,7.6,,,,69,9.8
165,Poly(n-propyl methacrylate),Homopolymer,1-Propanol,C3H8O,,70000,,,,,,,,,,393.2,16.1,,,,69,11.2
165,Poly(n-propyl methacrylate),Homopolymer,2-Butanone,C4H8O,,70000,,,,,,,,,,393.2,13.6,,,,69,8.07
165,Poly(n-propyl methacrylate),Homopolymer,"Acetic acid, ethyl ester",C4H8O2,,70000,,,,,,,,,,393.2,11.5,,,,69,7.21
165,Poly(n-propyl methacrylate),Homopolymer,Hexane,C6H14,,70000,,,,,,,,,,393.2,6.3,,,,69,12.1
166,Polystyrene,Homopolymer,Dichlorodifluoromethane,CCl2F2,,110000,,116600,,,,,,,,408,1.12,,,,17,
166,Polystyrene,Homopolymer,Dichlorodifluoromethane,CCl2F2,,110000,,116600,,,,,,,,423,0.94,,,,17,
166,Polystyrene,Homopolymer,Dichlorodifluoromethane,CCl2F2,,110000,,116600,,,,,,,,448,0.7,,,,17,
166,Polystyrene,Homopolymer,Dichlorodifluoromethane,CCl2F2,,110000,,116600,,,,,,,,473,0.56,,,,17,
166,Polystyrene,Homopolymer,Dichlorodifluoromethane,CCl2F2,,110000,,116600,,,,,,,,498,0.45,,,,17,
166,Polystyrene,Homopolymer,Trichlorofluoromethane,CCl3F,,110000,,116600,,,,,,,,408,3.85,,,,17,3.42
166,Polystyrene,Homopolymer,Trichlorofluoromethane,CCl3F,,110000,,116600,,,,,,,,423,3.02,,,,17,3.54
166,Polystyrene,Homopolymer,Trichlorofluoromethane,CCl3F,,110000,,116600,,,,,,,,448,2.09,,,,17,3.83
166,Polystyrene,Homopolymer,Trichlorofluoromethane,CCl3F,,110000,,116600,,,,,,,,473,1.55,,,,17,
166,Polystyrene,Homopolymer,Trichlorofluoromethane,CCl3F,,110000,,116600,,,,,,,,498,1.17,,,,17,
166,Polystyrene,Homopolymer,"Methane, tetrachloro",CCl4,a,600,a,660,,,,,,,,313.2,,0.29,,C,31,
166,Polystyrene,Homopolymer,"Methane, tetrachloro",CCl4,,1709,,1811,,,,,,,,413.2,,0.325,,C,19,
166,Polystyrene,Homopolymer,"Methane, tetrachloro",CCl4,,3524,,3876,,3600,,,,,,400,,,2.39,U,21,2.66
166,Polystyrene,Homopolymer,"Methane, tetrachloro",CCl4,,3524,,3876,,3600,,,,,,421.6,,,2.26,U,21,2.62
166,Polystyrene,Homopolymer,"Methane, tetrachloro",CCl4,,3524,,3876,,3600,,,,,,444.8,,,2.12,U,21,2.6
166,Polystyrene,Homopolymer,"Methane, tetrachloro",CCl4,,20000,,,,,,,,351,,435.5,3.94,,,,56,5.84
166,Polystyrene,Homopolymer,"Methane, tetrachloro",CCl4,,20000,,,,,,,,351,,445,3.6,,,,56,5.5
166,Polystyrene,Homopolymer,"Methane, tetrachloro",CCl4,,20000,,,,,,,,351,,492.9,2.09,,,,56,5.05
166,Polystyrene,Homopolymer,"Methane, tetrachloro",CCl4,,20000,,,,,,,,351,,502.6,2.47,,,,56,3.85
166,Polystyrene,Homopolymer,"Methane, tetrachloro",CCl4,,96200,,97600,,98200,,,,,40,396.5,,,3.12,U,21,3.46
166,Polystyrene,Homopolymer,"Methane, tetrachloro",CCl4,,96200,,97600,,98200,,,,,40,420,,,2.79,U,21,3.23
166,Polystyrene,Homopolymer,"Methane, tetrachloro",CCl4,,96200,,97600,,98200,,,,,40,447.5,,,2.37,U,21,2.92
166,Polystyrene,Homopolymer,"Methane, tetrachloro",CCl4,,110000,,116600,,,,,,,,423.2,,,4.2,C,9,
166,Polystyrene,Homopolymer,"Methane, tetrachloro",CCl4,,1780000,,2145000,,1890000,,,,,41,395.5,,,3.76,U,21,4.16
166,Polystyrene,Homopolymer,"Methane, tetrachloro",CCl4,,1780000,,2145000,,1890000,,,,,41,420.9,,,2.98,U,21,3.46